LAMMPS data file via write_data, version 2 Aug 2023, timestep = 1000000, units = real

1024 atoms
5 atom types

0 19.76 xlo xhi
0 21.39 ylo yhi
0 34.93 zlo zhi

Masses

1 12.011
2 15.9994
3 1.008
4 22.9898
5 35.453

Atoms # full

1 1 1 0 0.618 0.356 7.5 0 0 0
2 2 1 0 1.853 3.922 7.5 0 0 0
3 3 1 0 1.853 2.495 7.5 0 0 0
4 4 1 0 0.618 1.782 7.5 0 0 0
9 9 1 0 0.618 4.634 7.5 0 0 0
10 10 1 0 1.853 8.2 7.5 0 0 0
11 11 1 0 1.853 6.774 7.5 0 0 0
12 12 1 0 0.618 6.06 7.5 0 0 0
17 17 1 0 0.618 8.912 7.5 0 0 0
20 20 1 0 0.618 10.338 7.5 0 0 0
41 41 1 0 3.088 0.356 7.5 0 0 0
42 42 1 0 4.322 3.922 7.5 0 0 0
43 43 1 0 4.322 2.495 7.5 0 0 0
44 44 1 0 3.088 1.782 7.5 0 0 0
49 49 1 0 3.088 4.634 7.5 0 0 0
50 50 1 0 4.322 8.2 7.5 0 0 0
51 51 1 0 4.322 6.774 7.5 0 0 0
52 52 1 0 3.088 6.06 7.5 0 0 0
57 57 1 0 3.088 8.912 7.5 0 0 0
60 60 1 0 3.088 10.338 7.5 0 0 0
81 81 1 0 5.558 0.356 7.5 0 0 0
82 82 1 0 6.793 3.922 7.5 0 0 0
83 83 1 0 6.793 2.495 7.5 0 0 0
84 84 1 0 5.558 1.782 7.5 0 0 0
89 89 1 0 5.558 4.634 7.5 0 0 0
90 90 1 0 6.793 8.2 7.5 0 0 0
91 91 1 0 6.793 6.774 7.5 0 0 0
92 92 1 0 5.558 6.06 7.5 0 0 0
97 97 1 0 5.558 8.912 7.5 0 0 0
100 100 1 0 5.558 10.338 7.5 0 0 0
121 121 1 0 8.027 0.356 7.5 0 0 0
122 122 1 0 9.262 3.922 7.5 0 0 0
123 123 1 0 9.262 2.495 7.5 0 0 0
124 124 1 0 8.027 1.782 7.5 0 0 0
129 129 1 0 8.027 4.634 7.5 0 0 0
130 130 1 0 9.262 8.2 7.5 0 0 0
131 131 1 0 9.262 6.774 7.5 0 0 0
132 132 1 0 8.027 6.06 7.5 0 0 0
137 137 1 0 8.027 8.912 7.5 0 0 0
140 140 1 0 8.027 10.338 7.5 0 0 0
772 471 3 0.4238 2.1812853677957325 2.247615421757739 14.873362089673801 5 0 0
524 388 3 0.4238 7.8094830821676045 6.425146192258367 11.044172938243314 6 -1 0
1011 551 2 -0.8476 4.2058320186020834 1.946327361557593 14.555236382742052 4 -1 0
341 327 3 0.4238 0.5007131459389192 9.684394717537746 12.500972917036075 3 -2 0
787 476 3 0.4238 7.339210928845071 3.2540565866336078 16.100921160920624 4 -1 0
386 342 3 0.4238 1.8645930751516175 4.008525948055063 16.733341517341923 3 0 0
927 523 2 -0.8476 0.6027729910900803 7.1657229544085626 13.957170577628412 5 -2 0
952 531 3 0.4238 8.145812202498083 8.809987997693344 12.875731228333986 5 -2 0
616 419 3 0.4238 0.5024509884782626 5.629969182387898 14.824897995864353 5 -1 0
671 437 3 0.4238 0.009081815121664531 6.0794250008243695 12.220842178069617 4 -2 0
773 471 3 0.4238 0.7827783460265395 3.088409225142092 14.935574293037615 5 0 0
928 523 3 0.4238 1.4574717802132964 7.024507171936995 14.456718454028158 5 -2 0
771 471 2 -0.8476 1.1905966196322122 2.1769538821882852 14.989735397423823 5 0 0
788 476 3 0.4238 6.739860962571994 4.732417169429535 16.449999948648937 4 -1 0
973 538 3 0.4238 5.498526116629748 5.290054130019227 10.56607288517602 3 -1 0
1013 551 3 0.4238 4.295814164244363 1.808361630275569 15.541578014745589 4 -1 0
991 544 3 0.4238 3.630639087037827 8.940292209898479 17.029203432348343 5 1 0
751 464 3 0.4238 3.7511423420678867 5.628142575348358 14.001418939375935 5 -1 0
339 327 2 -0.8476 0.5364649049486901 9.667730055586272 13.500194653931974 3 -2 0
570 404 2 -0.8476 4.2978930276082705 2.461999050968923 17.153255646826995 5 -2 0
1014 552 2 -0.8476 4.669088197917778 4.0275997933375125 12.859917525104509 4 -2 0
997 546 3 0.4238 6.902228938887659 6.771463964013228 13.610820591967952 2 -2 0
853 498 3 0.4238 2.8320928237486904 3.973611082097188 10.01895445466704 5 -2 0
938 526 3 0.4238 6.61474818796654 8.895500994162775 10.643905332346247 4 -1 0
929 523 3 0.4238 0.5369526573624145 8.122218306986065 13.67294477822596 5 -2 0
897 513 2 -0.8476 8.729400789481616 7.913442673032334 10.58057099613796 4 -3 0
590 410 3 0.4238 6.083869234187361 9.710307311219585 16.250747964549902 4 -1 0
351 331 2 -0.8476 4.368555993824308 8.23124380927804 12.578574495241579 6 -2 0
347 329 3 0.4238 6.437625310908877 1.0162982875597284 11.74132867062965 5 -2 0
523 388 3 0.4238 7.266396033463975 5.220631869449282 12.00377087527052 6 -1 0
414 352 2 -0.8476 6.715468405899339 6.493131574612199 16.505658713637846 4 0 0
898 513 3 0.4238 9.122350174358726 8.797033554846518 10.835244413752665 4 -3 0
522 388 2 -0.8476 7.41217187756625 5.5075515098806145 11.056972819542594 6 -1 0
461 367 3 0.4238 2.99915353721739 1.6093592575233173 10.49337931414115 6 -1 0
854 498 3 0.4238 1.4142243701019757 4.523765002555269 10.613602589151988 5 -2 0
525 389 2 -0.8476 9.66657495099827 8.99525363468477 16.774852365658663 2 -2 0
821 487 3 0.4238 3.1664562532428 7.593999632338492 11.389497233278824 6 0 0
497 379 3 0.4238 3.7562746201870754 6.207320716500575 15.962425422093771 5 -1 0
1010 550 3 0.4238 7.583442716945376 2.3281983550460423 13.635509578991718 5 0 0
852 498 2 -0.8476 1.897547792883982 3.7194320800218317 10.267990460180604 5 -2 0
916 519 3 0.4238 2.0895909711200886 8.75212140252615 10.344250523551539 5 0 0
460 367 3 0.4238 2.514826466661878 0.05462597492974023 10.615275050636004 6 -1 0
974 538 3 0.4238 4.281537916094104 4.848077388898998 11.561172234326355 3 -1 0
405 349 2 -0.8476 8.637569316806074 0.6732553435049617 16.543171577763978 3 0 0
669 437 2 -0.8476 0.0732815458410412 5.767742212218518 11.272826993012746 4 -2 0
406 349 3 0.4238 8.317219532617154 1.2483580840278012 15.79042138667549 3 0 0
915 519 2 -0.8476 1.6469404568217065 9.641883954381898 10.232970906377172 5 0 0
646 429 3 0.4238 0.45207503030078633 2.717324894570152 10.983232025310993 4 0 0
752 464 3 0.4238 3.614737138770936 7.217886854086402 13.653952048678532 5 -1 0
786 476 2 -0.8476 6.678805973523575 3.7564182013138607 16.659041288022543 4 -1 0
1002 548 2 -0.8476 9.365690015217384 5.684760291275575 15.01966640421437 4 -2 0
353 331 3 0.4238 5.325439096621415 8.228734366870876 12.288111171200276 6 -2 0
750 464 2 -0.8476 3.3915448571720286 6.505452421383691 14.319250787365867 5 -1 0
1012 551 3 0.4238 3.9084871423585605 1.0938872390095296 14.12519809469374 4 -1 0
998 546 3 0.4238 7.892504019842673 5.559216611519505 14.07604968843531 2 -2 0
346 329 3 0.4238 5.440215649665278 2.191334661515184 12.28085632707542 5 -2 0
527 389 3 0.4238 9.449160026297838 8.038435018261977 16.967801987360055 2 -2 0
819 487 2 -0.8476 2.7051553268614366 7.296760327953871 10.553524619514299 6 0 0
526 389 3 0.4238 8.906877935093378 9.41629900357221 16.279290642978495 2 -2 0
1015 552 3 0.4238 4.207734741127263 3.3042311351145037 13.373620541202058 4 -2 0
1016 552 3 0.4238 5.652229726830008 3.988134690170817 13.038453930819202 4 -2 0
932 524 3 0.4238 8.490606817182606 4.052195651164372 10.747379865284138 5 -1 0
953 531 3 0.4238 7.123509496177233 9.162620898963857 14.09932172266512 5 -2 0
352 331 3 0.4238 4.23887634194401 8.918889742926906 13.29294625726021 6 -2 0
899 513 3 0.4238 8.483990812221007 7.924747771193111 9.611217524499953 4 -3 0
345 329 2 -0.8476 6.396042640751994 1.9268663023193304 12.152592162685824 5 -2 0
972 538 2 -0.8476 4.510123694115822 5.156136760597516 10.637674520148389 3 -1 0
990 544 2 -0.8476 4.458129604769903 9.41377532772539 16.72742037809828 5 1 0
1008 550 2 -0.8476 8.076041189376458 2.543016324701642 14.478836812931233 5 0 0
951 531 2 -0.8476 7.260282140304346 8.594914389983476 13.287531985040639 5 -2 0
820 487 3 0.4238 3.1196863264301253 6.44683558243987 10.228267841661419 6 0 0
931 524 3 0.4238 8.506093989933902 2.4780380535807756 11.181447213996535 5 -1 0
415 352 3 0.4238 5.8606204727610045 6.504668938472252 17.024409026335793 4 0 0
930 524 2 -0.8476 9.060800794430184 3.304882520656066 11.088557131068784 5 -1 0
936 526 2 -0.8476 6.046633148612081 9.684981971670663 10.411601172661388 4 -1 0
996 546 2 -0.8476 7.039926219208218 5.7810216314442995 13.60285454736679 2 -2 0
496 379 3 0.4238 3.557512407444745 5.343886553737507 17.334140481646248 5 -1 0
340 327 3 0.4238 1.4267803828787577 10.003724079340232 13.80751595180982 3 -2 0
1009 550 3 0.4238 8.995562650452824 2.8658986605905135 14.254720801826899 5 0 0
459 367 2 -0.8476 2.929788368584962 0.821346733957806 11.105118457257321 6 -1 0
495 379 2 -0.8476 4.117318369665601 6.0364424801355625 16.879185575840093 5 -1 0
992 544 3 0.4238 4.353135440024703 9.69285544660801 15.77290974246052 5 1 0
917 519 3 0.4238 2.3401389317283967 10.337982447641384 10.046094634106277 5 0 0
588 410 2 -0.8476 6.942629783604525 9.815488090535773 15.749281198732588 4 -1 0
637 426 3 0.4238 1.8514200790271786 10.443349112387596 17.301791710874703 5 1 0
416 352 3 0.4238 6.701800498332282 7.224979187895001 15.824327478405223 4 0 0
571 404 3 0.4238 5.159095751942883 2.959330306349164 17.04841520827531 5 -2 0
1004 548 3 0.4238 9.811055899940476 4.795469468280195 14.915690261835646 4 -2 0
1003 548 3 0.4238 9.271974461426375 5.898954675201473 15.991951433235856 4 -2 0
615 419 2 -0.8476 0.39601733351552376 4.756351820126329 15.299729135192111 5 -1 0
790 477 3 0.4238 0.6791335076278389 8.762147895753266 16.73713490638943 6 -2 0
670 437 3 0.4238 0.09986094122529805 6.559596623276982 10.662695533537892 4 -2 0
789 477 2 -0.8476 1.607393045858918 8.808336450335426 17.106188904779106 6 -2 0
937 526 3 0.4238 6.627320772775506 10.49070069000945 10.294897470010797 4 -1 0
433 358 3 0.4238 8.140334593422812 6.519795255025007 17.36764709200105 5 -1 0
572 404 3 0.4238 3.5578243028094185 3.1107223820308882 17.33061486496533 5 -2 0
432 358 2 -0.8476 9.127208611241118 6.387719061549405 17.46057503945453 5 -1 0
816 486 2 -0.8476 4.616983938000893 8.9293745177828 21.186361305869855 5 -2 0
950 530 3 0.4238 2.2730551419618648 5.94345462077005 18.989176633239428 6 -1 0
1021 557 5 -1 0.33717127824219717 2.403325128233192 19.580794407504946 5 0 0
355 332 3 0.4238 9.444916172736013 3.585937099364751 24.071651636088042 3 -1 0
967 536 3 0.4238 5.103241605857022 1.780768014769072 23.751849965956836 3 0 0
506 382 3 0.4238 6.7808091140794575 6.2149592265661475 20.93026503543773 7 -1 0
686 442 3 0.4238 6.515894667034861 7.155348851829188 24.20732534082195 3 -2 0
419 353 3 0.4238 8.982467698971956 7.84293950596567 23.349977943342388 3 -1 0
948 530 2 -0.8476 1.605578012288439 6.6876639110639395 19.014222807399598 6 -1 0
919 520 3 0.4238 7.304509608195266 9.567070282195685 23.591442282220527 5 -1 0
957 533 2 -0.8476 6.835268259576667 3.643020719107016 19.381198346463915 3 0 0
329 323 3 0.4238 0.17605282141519396 1.0836663417150698 17.634376547652224 4 -2 0
487 376 3 0.4238 8.161847940535774 1.1945358455177666 18.369532315752462 5 -2 0
920 520 3 0.4238 5.947308296907579 9.077484145562 24.356253657160877 5 -1 0
685 442 3 0.4238 5.176301076075671 6.467231873337471 24.83868142397942 3 -2 0
791 477 3 0.4238 1.6892047292678625 8.18255775531676 17.88188722883794 6 -2 0
754 465 3 0.4238 4.850357458257297 5.658889219637553 20.560831596015433 4 -1 0
384 342 2 -0.8476 2.284332862436558 3.9831305679084785 17.640630648164002 3 0 0
976 539 3 0.4238 2.2875975514869054 0.5130808042503606 19.005416904979135 4 -1 0
1007 549 3 0.4238 2.405141802486177 7.3666505500425625 24.56569036740884 5 0 0
1005 549 2 -0.8476 3.212359880119555 7.556991329480091 24.006969270116247 5 0 0
755 465 3 0.4238 3.699488764010689 4.569340761736884 20.9545471074801 4 -1 0
687 443 2 -0.8476 2.1022736423818675 4.470977864650319 23.536174104349477 2 -2 0
958 533 3 0.4238 7.0521212457837485 3.68178887933003 18.405763567939253 3 0 0
504 382 2 -0.8476 6.483661066788651 7.04747750849285 20.462700736850312 7 -1 0
699 447 2 -0.8476 0.42825216504746155 6.677242965733382 22.43535939752 5 -2 0
723 455 2 -0.8476 2.107739776660142 0.2510176601819945 23.71830339673013 3 -2 0
903 515 2 -0.8476 7.534157401249713 3.9353526600529367 24.184519247674174 4 -2 0
543 395 2 -0.8476 3.536004079506932 2.9300452675023547 20.773288292386233 3 -1 0
818 486 3 0.4238 5.2090317351764135 8.225067679461302 20.794656293289997 5 -2 0
904 515 3 0.4238 7.059867489665528 3.0633048886199328 24.305280487728233 4 -2 0
797 479 3 0.4238 6.675278468353271 1.044103934824981 20.33509474212116 5 -1 0
500 380 3 0.4238 9.536201144847348 9.332126167673776 21.22992134353111 5 -1 0
547 396 3 0.4238 8.808399882113363 1.2750543141020014 21.322340582207033 4 0 0
688 443 3 0.4238 2.646272209451343 3.972796976888186 22.86098420859578 2 -2 0
731 457 3 0.4238 8.45665290356623 10.489654030740763 19.733025730563813 6 -1 0
796 479 3 0.4238 5.283748893213585 0.21313066267557207 20.534482165311445 5 -1 0
724 455 3 0.4238 2.878953966739474 0.8491696966536723 23.93611713206933 3 -2 0
725 455 3 0.4238 1.3158483255221718 0.5141149241547185 24.26938211768148 3 -2 0
333 325 2 -0.8476 7.73294126126453 4.904868458763735 21.54404513594124 4 -1 0
684 442 2 -0.8476 6.1409741836070015 6.3240030249955215 24.61756768301264 3 -2 0
545 395 3 0.4238 4.353250504965536 2.408387214730708 21.018200392349335 3 -1 0
975 539 2 -0.8476 3.0650320868803336 0.19483294812909546 18.462909644396678 4 -1 0
486 376 2 -0.8476 8.088409415179033 0.6638130605110875 19.21389011980182 5 -2 0
1019 555 4 1 2.7498196192070488 7.532964417606255 21.61245757516442 4 -2 0
326 322 3 0.4238 4.441072373741682 10.079979129812912 18.157118369824698 3 -1 0
625 422 3 0.4238 0.6412587744433105 10.308727737507468 24.203048762490972 5 0 0
918 520 2 -0.8476 6.790639619336396 8.772160968263805 23.91402064961629 5 -1 0
484 375 3 0.4238 8.817603212015973 5.74853558656598 20.878741038663605 4 0 0
905 515 3 0.4238 6.987108776793978 4.670535419243185 24.584825181213 4 -2 0
546 396 2 -0.8476 9.124386595831952 1.2869858465008466 22.271029371119177 4 0 0
966 536 2 -0.8476 4.125136876286341 1.945688635003135 23.87878639887289 3 0 0
335 325 3 0.4238 7.50093261550827 4.352560754186412 20.74334030535509 4 -1 0
968 536 3 0.4238 3.984510762504099 2.879484119516318 24.207800587779907 3 0 0
494 378 3 0.4238 1.1912998790760736 9.417956285103868 22.518385917844544 4 -4 0
926 522 3 0.4238 7.7570019058486 1.5949078001693302 23.57795461744293 4 -1 0
324 322 2 -0.8476 4.274397031844468 10.6559689880559 18.957402742703536 3 -1 0
795 479 2 -0.8476 5.751163002859621 1.0784032199860025 20.71566560052123 5 -1 0
505 382 3 0.4238 7.137829406828217 7.7821964222881865 20.64228858697376 7 -1 0
1006 549 3 0.4238 3.611542708319799 8.430756434392864 24.28479570012801 5 0 0
624 422 2 -0.8476 0.7127446904236497 9.311311408673182 24.19587749620866 5 0 0
434 358 3 0.4238 9.35221149187159 6.220703917877992 18.420512355494782 5 -1 0
924 522 2 -0.8476 6.967652379878979 1.4777232972565877 24.180612507104946 4 -1 0
492 378 2 -0.8476 1.3362170089760155 9.539702833844814 21.536460859977048 4 -4 0
544 395 3 0.4238 2.7890004361125076 2.2996200481251092 20.562219922659157 3 -1 0
959 533 3 0.4238 6.2341148221991185 2.863755646430814 19.558288569522404 3 0 0
753 465 2 -0.8476 3.9124435406796656 5.54414565696763 20.88817148918389 4 -1 0
925 522 3 0.4238 7.034225658644929 0.5970499695093356 24.64963616605568 4 -1 0
689 443 3 0.4238 1.7531046088075675 5.313806632087378 23.126636733057197 2 -2 0
949 530 3 0.4238 0.7102552909401717 6.341982354161643 18.73332734087823 6 -1 0
483 375 2 -0.8476 9.440037152659933 6.339881869904524 20.366017321648524 4 0 0
493 378 3 0.4238 1.5757428839183638 10.492619706370128 21.350512403673925 4 -4 0
499 380 3 0.4238 9.016201731624802 7.850065538171047 20.78301714185309 5 -1 0
564 402 2 -0.8476 4.480929047215365 9.960734666407406 24.163311422873537 4 -2 0
334 325 3 0.4238 7.379181262012993 4.462337104223649 22.36807175249409 4 -1 0
817 486 3 0.4238 4.374703414631541 9.592721912679215 20.478356166769363 5 -2 0
977 539 3 0.4238 3.5178929921849975 0.9785178864145321 18.037755518279337 4 -1 0
712 451 3 0.4238 0.03255326941404317 9.33347271207674 20.65178456946219 5 -2 0
730 457 3 0.4238 8.283168600781242 10.062615186368918 18.166447471732138 6 -1 0
566 402 3 0.4238 4.276960447150566 10.253165437236035 23.229030199215508 4 -2 0
760 467 3 0.4238 1.0345978368587632 0.39880763087195975 20.791858938302138 6 -1 0
385 342 3 0.4238 1.7194634409919856 3.43099449436899 18.253874722034432 3 0 0
418 353 3 0.4238 8.716690138164681 7.021456654250348 24.736035163577103 3 -1 0
417 353 2 -0.8476 9.415006410257224 7.324204144398553 24.087422326978118 3 -1 0
498 380 2 -0.8476 8.73074733804886 8.780217995279616 21.013954843683806 5 -1 0
5 5 1 0 0.618 0.356 27.43 0 0 0
6 6 1 0 1.853 3.922 27.43 0 0 0
7 7 1 0 1.853 2.495 27.43 0 0 0
8 8 1 0 0.618 1.782 27.43 0 0 0
13 13 1 0 0.618 4.634 27.43 0 0 0
14 14 1 0 1.853 8.2 27.43 0 0 0
15 15 1 0 1.853 6.774 27.43 0 0 0
16 16 1 0 0.618 6.06 27.43 0 0 0
21 21 1 0 0.618 8.912 27.43 0 0 0
24 24 1 0 0.618 10.338 27.43 0 0 0
45 45 1 0 3.088 0.356 27.43 0 0 0
46 46 1 0 4.322 3.922 27.43 0 0 0
47 47 1 0 4.322 2.495 27.43 0 0 0
48 48 1 0 3.088 1.782 27.43 0 0 0
53 53 1 0 3.088 4.634 27.43 0 0 0
54 54 1 0 4.322 8.2 27.43 0 0 0
55 55 1 0 4.322 6.774 27.43 0 0 0
56 56 1 0 3.088 6.06 27.43 0 0 0
61 61 1 0 3.088 8.912 27.43 0 0 0
64 64 1 0 3.088 10.338 27.43 0 0 0
85 85 1 0 5.558 0.356 27.43 0 0 0
86 86 1 0 6.793 3.922 27.43 0 0 0
87 87 1 0 6.793 2.495 27.43 0 0 0
88 88 1 0 5.558 1.782 27.43 0 0 0
93 93 1 0 5.558 4.634 27.43 0 0 0
94 94 1 0 6.793 8.2 27.43 0 0 0
95 95 1 0 6.793 6.774 27.43 0 0 0
96 96 1 0 5.558 6.06 27.43 0 0 0
101 101 1 0 5.558 8.912 27.43 0 0 0
104 104 1 0 5.558 10.338 27.43 0 0 0
125 125 1 0 8.027 0.356 27.43 0 0 0
126 126 1 0 9.262 3.922 27.43 0 0 0
127 127 1 0 9.262 2.495 27.43 0 0 0
128 128 1 0 8.027 1.782 27.43 0 0 0
133 133 1 0 8.027 4.634 27.43 0 0 0
134 134 1 0 9.262 8.2 27.43 0 0 0
135 135 1 0 9.262 6.774 27.43 0 0 0
136 136 1 0 8.027 6.06 27.43 0 0 0
141 141 1 0 8.027 8.912 27.43 0 0 0
144 144 1 0 8.027 10.338 27.43 0 0 0
18 18 1 0 1.853 12.477 7.5 0 0 0
19 19 1 0 1.853 11.051 7.5 0 0 0
25 25 1 0 0.618 13.191 7.5 0 0 0
26 26 1 0 1.853 16.755 7.5 0 0 0
27 27 1 0 1.853 15.33 7.5 0 0 0
28 28 1 0 0.618 14.616 7.5 0 0 0
33 33 1 0 0.618 17.468 7.5 0 0 0
34 34 1 0 1.853 21.034 7.5 0 0 0
35 35 1 0 1.853 19.607 7.5 0 0 0
36 36 1 0 0.618 18.894 7.5 0 0 0
58 58 1 0 4.322 12.477 7.5 0 0 0
59 59 1 0 4.322 11.051 7.5 0 0 0
65 65 1 0 3.088 13.191 7.5 0 0 0
66 66 1 0 4.322 16.755 7.5 0 0 0
67 67 1 0 4.322 15.33 7.5 0 0 0
68 68 1 0 3.088 14.616 7.5 0 0 0
73 73 1 0 3.088 17.468 7.5 0 0 0
74 74 1 0 4.322 21.034 7.5 0 0 0
75 75 1 0 4.322 19.607 7.5 0 0 0
76 76 1 0 3.088 18.894 7.5 0 0 0
98 98 1 0 6.793 12.477 7.5 0 0 0
99 99 1 0 6.793 11.051 7.5 0 0 0
105 105 1 0 5.558 13.191 7.5 0 0 0
106 106 1 0 6.793 16.755 7.5 0 0 0
107 107 1 0 6.793 15.33 7.5 0 0 0
108 108 1 0 5.558 14.616 7.5 0 0 0
113 113 1 0 5.558 17.468 7.5 0 0 0
114 114 1 0 6.793 21.034 7.5 0 0 0
115 115 1 0 6.793 19.607 7.5 0 0 0
116 116 1 0 5.558 18.894 7.5 0 0 0
138 138 1 0 9.262 12.477 7.5 0 0 0
139 139 1 0 9.262 11.051 7.5 0 0 0
145 145 1 0 8.027 13.191 7.5 0 0 0
146 146 1 0 9.262 16.755 7.5 0 0 0
147 147 1 0 9.262 15.33 7.5 0 0 0
148 148 1 0 8.027 14.616 7.5 0 0 0
153 153 1 0 8.027 17.468 7.5 0 0 0
154 154 1 0 9.262 21.034 7.5 0 0 0
155 155 1 0 9.262 19.607 7.5 0 0 0
156 156 1 0 8.027 18.894 7.5 0 0 0
581 407 3 0.4238 4.529521564569073 17.927986085395055 11.06647530470773 4 1 0
608 416 3 0.4238 6.060536896187484 14.030383162029658 12.527423886047417 4 -2 0
983 541 3 0.4238 8.605926330176262 11.424294124227917 11.404283864867843 2 -3 0
518 386 3 0.4238 9.184290281877933 20.742627192223917 12.634218104518743 4 0 0
985 542 3 0.4238 8.227625173573182 17.726109031897085 11.885703925410885 4 -2 0
606 416 2 -0.8476 6.054889620724486 14.829720864458492 11.92656835233067 4 -2 0
1023 559 5 -1 3.3648684642276474 11.02530768400219 14.117127351972943 7 -2 0
864 502 2 -0.8476 8.790550385053937 19.383444946113627 15.563858652697702 2 -1 0
375 339 2 -0.8476 6.388705020365991 20.803379505845506 10.705560570646428 5 -3 0
792 478 2 -0.8476 2.5180127519623245 18.57361191990892 14.5705666683937 5 -2 0
638 426 3 0.4238 2.3593063333318267 11.757546868790367 16.476223845019803 5 1 0
503 381 3 0.4238 7.942655832871734 15.606511566883134 16.33396143388105 5 -2 0
579 407 2 -0.8476 4.5333055503566495 18.924272254271685 10.98045383529286 4 1 0
694 445 3 0.4238 3.6419120949082004 13.446451965120087 10.283259966364396 5 -1 0
407 349 3 0.4238 8.707106534466018 21.11538437148969 16.23219697882067 3 -1 0
667 436 3 0.4238 3.185955166575252 20.046047045018362 13.872502914492765 4 0 0
811 484 3 0.4238 5.092266781423286 12.095495298552546 13.471113798620252 6 -1 0
982 541 3 0.4238 8.048969391728086 12.857974703252962 10.855661798763535 2 -3 0
812 484 3 0.4238 6.291780494060663 11.65789214922073 12.453127157308828 6 -1 0
806 482 3 0.4238 1.2835584940803322 19.485902921379278 9.750926134108978 4 -1 0
412 351 3 0.4238 6.104845454667048 17.82368451797263 17.041254636796022 5 -1 0
861 501 2 -0.8476 0.5043050910251186 13.099198460195739 12.055903438102796 5 -2 0
379 340 3 0.4238 3.474938742414349 11.427874252900581 11.858020637744541 7 0 0
439 360 3 0.4238 2.4247781497139793 15.664476555625559 10.432661428943353 4 -2 0
693 445 2 -0.8476 3.718872401840037 14.40480608272811 10.558278682181252 5 -1 0
945 529 2 -0.8476 4.328645674178154 16.124078788803747 13.979543367270134 5 -1 0
331 324 3 0.4238 9.762874451323142 14.957420341777384 15.599538737980238 4 -2 0
580 407 3 0.4238 3.5926682718407883 19.263463208876583 10.992763923109116 4 1 0
866 502 3 0.4238 7.983582826414057 18.858336282534125 15.834163154601056 2 -1 0
445 362 3 0.4238 8.46950151585956 15.675416617532138 10.431282421877224 3 -3 0
922 521 3 0.4238 1.1243858286223665 14.754032967910241 15.37757498016686 5 -1 0
981 541 2 -0.8476 7.842665646912879 11.884081611772485 10.950379183233315 2 -3 0
793 478 3 0.4238 3.4088718829360607 18.13774555474341 14.442541276458362 5 -2 0
619 420 3 0.4238 6.823786253333002 13.026010153001202 16.711267764275785 5 -2 0
609 417 2 -0.8476 3.019433383289011 14.285340011331302 15.591387069917738 4 -1 0
946 529 3 0.4238 4.749589986449672 15.541055151656705 13.284640889947582 5 -1 0
376 339 3 0.4238 6.700537949607357 20.76011410241891 9.75640919635464 5 -3 0
611 417 3 0.4238 3.1613228037681513 13.439307187539526 15.07748405456802 4 -1 0
921 521 2 -0.8476 0.2246355812382378 14.948947067167246 15.76803480449548 5 -1 0
804 482 2 -0.8476 1.8076336042576524 19.79456116952912 10.544699130351265 4 -1 0
840 494 2 -0.8476 0.18334522406730278 19.224394431225083 17.098928469001017 5 -1 0
535 392 3 0.4238 6.886343484634216 12.60283758755069 14.36061743560462 5 -2 0
361 334 3 0.4238 7.168775294251588 15.739557356538427 12.881893423470219 6 -2 0
451 364 3 0.4238 1.7927027541613474 17.313135171729275 13.644179620493677 3 -1 0
446 362 3 0.4238 8.907668978012724 14.357632080782542 9.572166802673301 3 -3 0
452 364 3 0.4238 0.5438653085034068 16.261324035807206 13.671102573646438 3 -1 0
862 501 3 0.4238 0.6224829650997695 12.114899842485647 11.924791686410808 5 -2 0
469 370 3 0.4238 6.734211024719345 19.761360684464663 13.750599208806406 3 -2 0
468 370 2 -0.8476 5.967363121874377 19.474597721639995 14.324804046846355 3 -2 0
805 482 3 0.4238 1.3577320939796302 19.484485945852068 11.382221040765836 4 -1 0
438 360 2 -0.8476 1.6536693245310783 16.29523964962934 10.519431779084517 4 -2 0
516 386 2 -0.8476 8.231841094078721 20.534456492841777 12.856718527720744 4 0 0
517 386 3 0.4238 7.663270278964162 20.666912583268445 12.044817522186834 4 0 0
362 334 3 0.4238 6.781671883412739 16.624685030021237 14.198451992642408 6 -2 0
444 362 2 -0.8476 8.432341303423934 14.67687924274731 10.39201120868763 3 -3 0
380 340 3 0.4238 4.340747759234391 10.959330313801553 10.555151446459417 7 0 0
360 334 2 -0.8476 7.535297043203806 16.232326121377834 13.671096274529948 6 -2 0
450 364 2 -0.8476 1.1426943150682622 16.802854225121692 13.081061157757517 3 -1 0
607 416 3 0.4238 6.899128630179835 14.850081037273268 11.390988318740657 4 -2 0
552 398 2 -0.8476 0.2075846123247261 19.331687670938063 12.786826028319787 5 -2 0
378 340 2 -0.8476 3.6992746392095324 11.640981752742395 10.907094987912975 7 0 0
411 351 2 -0.8476 6.184203659171649 17.47498036155503 16.107387575320683 5 -1 0
610 417 3 0.4238 3.7155402135596383 14.362486810067434 16.305168614833836 4 -1 0
440 360 3 0.4238 1.431100308739068 16.418540659519543 11.486520137269185 4 -2 0
377 339 3 0.4238 5.554696302523519 20.26111646182183 10.807444290004906 5 -3 0
810 484 2 -0.8476 5.981809920085305 12.35753314490616 13.096882332026 6 -1 0
808 483 3 0.4238 5.635297007793624 15.931353534287878 16.877877211792512 4 -2 0
794 478 3 0.4238 2.4413557414014577 18.905485746270976 15.510770636027235 5 -2 0
695 445 3 0.4238 4.632569988370022 14.573071415881016 10.928203686983997 5 -1 0
636 426 2 -0.8476 1.9215741192744886 11.44075888214859 17.31767253432857 5 1 0
923 521 3 0.4238 0.3347854800312599 15.3218897488149 16.689328223384376 5 -1 0
865 502 3 0.4238 8.811864473626922 19.472860718810047 14.568092147153784 2 -1 0
536 392 3 0.4238 8.293141706627926 13.286964143308108 14.82914288381651 5 -2 0
413 351 3 0.4238 5.981006862416455 18.208834764982832 15.459183279466558 5 -1 0
534 392 2 -0.8476 7.536937714753163 12.697919463484533 15.114067250869372 5 -2 0
947 529 3 0.4238 3.874802107037604 15.552904818868344 14.663492781025933 5 -1 0
668 436 3 0.4238 3.2700824070660044 21.09829861143305 12.626582888785848 4 0 0
470 370 3 0.4238 5.153585141975763 20.002734799067923 14.082241450619804 3 -2 0
807 483 2 -0.8476 5.075238218253871 15.307051917665797 17.422470349097445 4 -2 0
984 542 2 -0.8476 8.743396565047721 17.26763992436267 11.161973340448915 4 -2 0
986 542 3 0.4238 9.569651018776185 17.792597235326646 10.957710155963092 4 -2 0
666 436 2 -0.8476 3.68588240432487 20.825033519313173 13.494014425295315 4 0 0
553 398 3 0.4238 0.19636741964732693 18.334143333462436 12.71768715439465 5 -2 0
933 525 2 -0.8476 2.7677081370617107 19.260033951627488 17.143432868416845 4 0 0
501 381 2 -0.8476 8.650413874779911 15.743481654801432 17.027011214315294 5 -2 0
863 501 3 0.4238 1.338886336807783 13.575011571423858 11.77827752040398 5 -2 0
869 503 3 0.4238 9.802377591188295 17.126300881668957 17.054517254463395 4 -1 0
935 525 3 0.4238 1.7712244054386836 19.333353806433085 17.102880889047952 4 0 0
554 398 3 0.4238 0.4998963969416341 19.59889185335105 13.705061368566465 5 -2 0
589 410 3 0.4238 7.124362244488761 10.787389275619638 15.599674739271247 4 -1 0
880 507 3 0.4238 3.4965104579058552 17.115814806416434 24.70298301046576 3 -2 0
988 543 3 0.4238 4.260960850966531 20.62876177170401 19.494216975229467 6 -2 0
620 420 3 0.4238 6.0071786760848225 13.985591270841766 17.750008619862086 5 -2 0
549 397 2 -0.8476 0.17954688313352005 15.660911514113522 18.702209748860756 3 -2 0
826 489 3 0.4238 7.777849726716117 18.826670101392043 18.788957306115417 2 0 0
845 495 3 0.4238 3.699955505944134 19.703490389500313 24.58025724955426 5 -1 0
655 432 3 0.4238 1.599567376174034 14.330028720744158 23.393633792311643 5 -2 0
576 406 2 -0.8476 0.0893450286869693 12.07432369734042 24.382635577433746 6 -2 0
656 432 3 0.4238 0.9341524035580505 14.12137311255921 24.87022188488704 5 -2 0
856 499 3 0.4238 7.5759348569946 11.40817101481082 22.278024372081784 3 0 0
893 511 3 0.4238 8.155006709043814 13.903583389659211 23.641826212505933 2 -3 0
722 454 3 0.4238 2.93375484680686 17.773715781122895 17.662955784268984 4 -3 0
881 507 3 0.4238 2.793632533409042 15.649894583635055 24.549140853941456 3 -2 0
441 361 2 -0.8476 3.400055427983814 18.432452710040952 21.71554031913488 4 -1 0
643 428 3 0.4238 8.90385793964894 20.412535125140376 24.288117319971715 3 -2 0
692 444 3 0.4238 0.6608781381873341 19.66963300223468 20.515571963268698 7 -1 0
843 495 2 -0.8476 4.113456996373253 18.80983256861172 24.405922992808406 5 -1 0
562 401 3 0.4238 7.446975442730399 16.917864517631486 20.557103418245525 5 -5 0
879 507 2 -0.8476 3.6482832768661217 16.159873266381716 24.451703878495294 3 -2 0
944 528 3 0.4238 7.148998503845474 19.24631291555485 24.238843832476014 4 -3 0
770 470 3 0.4238 1.406747979900479 12.91797776401998 19.795044027757317 5 0 0
809 483 3 0.4238 4.216143483027523 15.756859361131783 17.66666198274793 4 -2 0
980 540 3 0.4238 4.969676592297429 14.942316466367584 20.245478100069345 6 -1 0
825 489 2 -0.8476 6.8903228086877375 18.388681634323504 18.645910898051323 2 0 0
767 469 3 0.4238 8.544886993870294 17.179823882584117 23.635242628937114 4 -1 0
995 545 3 0.4238 3.796876882302841 12.716327631145763 23.62774711602978 3 0 0
891 511 2 -0.8476 8.988840063020602 13.837333510543717 24.189852615445755 2 -3 0
578 406 3 0.4238 0.4681022411951 12.260699828175435 23.47609965070451 6 -2 0
993 545 2 -0.8476 4.505963878654166 12.951702462040057 24.292424180052485 3 0 0
550 397 3 0.4238 0.5330453964453342 14.74167035104138 18.875514359054804 3 -2 0
766 469 3 0.4238 6.949343507177519 16.904296185535337 23.847261412848624 4 -1 0
943 528 3 0.4238 6.717435682205771 20.39574284501528 23.162186107608584 4 -3 0
563 401 3 0.4238 8.864926098792694 17.394629405024908 21.211884765085223 5 -5 0
539 393 3 0.4238 9.807013989483048 15.814146862351295 22.082874189717714 4 -3 0
442 361 3 0.4238 2.433783347855013 18.670283839165304 21.616773101288768 4 -1 0
979 540 3 0.4238 3.8718468167540676 14.111210342250665 21.123350718085334 6 -1 0
720 454 2 -0.8476 3.1168676345006703 16.853801403620658 18.00969384363966 4 -3 0
614 418 3 0.4238 9.35902836137413 10.891173280836036 23.25481897568313 7 -2 0
325 322 3 0.4238 3.412569572012248 11.149246845711053 18.839375675229952 3 -1 0
443 361 3 0.4238 3.714478892089088 18.68809629866191 22.62975306284291 4 -1 0
721 454 3 0.4238 2.2964498252503893 16.49637465766355 18.455968024233204 4 -3 0
561 401 2 -0.8476 8.362138698446337 16.61987104385441 20.828537609465805 5 -5 0
828 490 2 -0.8476 6.601261793728926 14.194283265009833 22.99283388165719 4 -2 0
960 534 2 -0.8476 9.619432277423952 19.735222975120074 19.400641097315283 3 -1 0
613 418 3 0.4238 8.717853276857523 12.056474020300065 24.20223433154574 7 -2 0
488 376 3 0.4238 8.539084570707578 21.169486341161885 19.09199606233591 5 -3 0
942 528 2 -0.8476 6.797818999663786 20.176801825962094 24.134607589373715 4 -3 0
892 511 3 0.4238 9.564411427105467 14.637035675259568 24.018990040002876 2 -3 0
1020 556 4 1 6.067987478512847 12.060880171280282 19.718851554726477 3 -2 0
761 467 3 0.4238 1.8784310305481278 21.2479916331629 22.08107967259785 6 -2 0
690 444 2 -0.8476 0.4956303393586702 18.71680237918662 20.260998125479425 7 -1 0