################################################################################
# Symmetry function scaling data.
################################################################################
# Col  Name     Description
################################################################################
# 1    e_index  Element index.
# 2    sf_index Symmetry function index.
# 3    sf_min   Symmetry function minimum.
# 4    sf_max   Symmetry function maximum.
# 5    sf_mean  Symmetry function mean.
# 6    sf_sigma Symmetry function sigma.
#########################################################################################################################
#        1          2                        3                        4                        5                        6
#  e_index   sf_index                   sf_min                   sf_max                  sf_mean                 sf_sigma
#########################################################################################################################
         1          1   7.2421640445265417E-04   8.4135735540898662E-02   3.2439812488968114E-02   6.3150296145503722E-03
         1          2   0.0000000000000000E+00   1.5485410450678452E-01   8.0002429137578958E-05   2.2142475365533321E-03
         1          3   6.3222866790738994E-03   2.0917136534186609E-01   1.5433855206797717E-01   9.3787547543218112E-03
         1          4   0.0000000000000000E+00   8.1139451194336808E-03   9.5347451964264273E-06   6.8637373571956437E-05
         1          5   0.0000000000000000E+00   2.1083174573925261E-02   1.7191945310171354E-04   6.7232908993518164E-04
         1          6   1.9283573597047778E-02   4.1830338886801299E-01   1.8647246621728442E-01   2.9736175074328908E-02
         1          7   0.0000000000000000E+00   5.7716886897193176E-01   8.4922302200138452E-04   1.2337272965349868E-02
         1          8   7.3260786382683962E-02   5.6354177603478495E-01   3.5638085569706734E-01   3.3400409844094564E-02
         1          9   0.0000000000000000E+00   6.4670939294240545E-02   2.5841167110072138E-04   1.0636685638782822E-03
         1         10   0.0000000000000000E+00   1.1825866811104732E-01   2.2073958686702690E-03   7.1066862098210582E-03
         1         11   1.6143570737543764E-01   1.1202064676810759E+00   5.1518967738059163E-01   1.0822745828746690E-01
         1         12   0.0000000000000000E+00   1.2956771096216004E+00   6.1846160139448006E-03   3.8844491333758474E-02
         1         13   2.3161440512650072E-01   8.4344177930662778E-01   3.8992311643833527E-01   8.1294103416817198E-02
         1         14   0.0000000000000000E+00   1.8962331528386817E-01   3.0181874200915582E-03   8.2968528038705365E-03
         1         15   0.0000000000000000E+00   2.4402568733101646E-01   1.1497374811751409E-02   3.0884135304610691E-02
         1         16   1.5376510254912962E-01   1.8386477530233964E+00   8.6402715037276079E-01   2.0752059882811472E-01
         1         17   0.0000000000000000E+00   1.4943991701782131E+00   2.8238011212188233E-02   1.0079865832114596E-01
         1         18   6.0498803778185756E-02   1.0523481888040129E+00   3.6018074716033693E-01   1.0367005000107377E-01
         1         19   0.0000000000000000E+00   3.1866006928864826E-01   1.5125375243479932E-02   3.1891933798991481E-02
         1         20   0.0000000000000000E+00   3.4657647376929529E-01   2.5985933840774078E-02   5.7192640961243955E-02
         1         21   4.1984292201117421E-02   2.0017403522699198E+00   1.0369363615394815E+00   2.4166476659814554E-01
         1         22   0.0000000000000000E+00   1.4162985046259386E+00   7.5307988876213053E-02   1.9853706708078692E-01
         1         23   6.6679136488979685E-03   1.0935935682371276E+00   4.5857523053660437E-01   1.2992490199945264E-01
         1         24   0.0000000000000000E+00   4.4152749410764464E-01   3.3097125353099541E-02   5.8074857632580953E-02
         1         25   0.0000000000000000E+00   3.9066141216772027E-01   3.0978724264536382E-02   5.2286336681426064E-02
         1         26   1.3558460281426619E-02   1.7778525601036799E+00   9.7348810343795433E-01   2.1817141962951406E-01
         1         27   0.0000000000000000E+00   1.0511533578411794E+00   1.1856306250044231E-01   2.6403941085007648E-01
         1         28   3.0835996665639943E-03   9.7357747898191827E-01   5.1705861727947355E-01   1.2138887831810921E-01
         1         29   0.0000000000000000E+00   3.4697310029412454E-01   3.3914165227226824E-02   5.1302055461709330E-02
         1         30   0.0000000000000000E+00   2.6421251069473478E-01   2.7469036263283800E-02   3.8521254818133226E-02
         1         31   2.3085880936346753E-02   1.2286886791530998E+00   7.2543524824864924E-01   1.5911373620900690E-01
         1         32   0.0000000000000000E+00   9.9967170323385413E-01   1.1544581942089127E-01   2.3481317792197401E-01
         1         33   5.9290719886773043E-03   6.9825549901781159E-01   3.8332543072547354E-01   8.8411525989441672E-02
         1         34   0.0000000000000000E+00   2.0912551387316991E-01   1.9967052381282560E-02   2.6527264307833406E-02
         1         35   0.0000000000000000E+00   1.9109347619725656E-01   2.0231971558694606E-02   2.6747154454125489E-02
         1         36   1.5208182285164904E-02   6.8447891953753104E-01   3.9779964646286092E-01   8.9630964379703443E-02
         1         37   0.0000000000000000E+00   5.9558036794508940E-01   7.2829420920578827E-02   1.3893614712883243E-01
         1         38   6.1151395998202303E-03   3.5095229728298516E-01   1.9659702911239432E-01   4.7940686044142963E-02
         1         39   0.0000000000000000E+00   1.0091451467579815E-01   9.5414138557318191E-03   1.2271586207180302E-02
         1         40   0.0000000000000000E+00   1.0613418331868386E-01   1.0871452159419620E-02   1.3618548334573152E-02
         1         41   3.7244021131589730E-03   2.5588965461945784E-01   1.5164200629333757E-01   3.5561841325336255E-02
         1         42   0.0000000000000000E+00   2.4563474221447432E-01   3.0081064203076515E-02   5.4555518400001550E-02
         1         43   5.5248563686154301E-04   1.4597230837702671E-01   7.3682055085823275E-02   1.9045593840053048E-02
         1         44   0.0000000000000000E+00   4.8324967386538985E-02   3.9377808172376041E-03   5.0233206257685138E-03
         1         45   0.0000000000000000E+00   3.6863622831612104E-02   4.0848099248609352E-03   5.0325750359716814E-03
         1         46   3.6933465581083307E-04   6.4569304841643235E-02   3.7531905040907559E-02   9.1858726193950642E-03
         1         47   0.0000000000000000E+00   5.5094330343398855E-02   7.7514378512731873E-03   1.3567655030710028E-02
         1         48   1.2377793832988839E-05   3.7267155750673173E-02   1.8562079300654240E-02   5.1098059921783007E-03
         1         49   0.0000000000000000E+00   1.0925414998555502E-02   1.0801343779808913E-03   1.3515379702770361E-03
         1         50   0.0000000000000000E+00   9.4141106491844838E-03   1.0147444249220831E-03   1.2632241175485036E-03
         1         51   5.0403086529937436E-06   8.8764311998078549E-02   2.0590416840160112E-02   8.3333973682659986E-03
         1         52   0.0000000000000000E+00   8.8725196561956779E-02   1.0132012954094866E-03   3.0905334078003359E-03
         1         53   3.9610805066650186E-03   1.4553713594700707E-01   3.9107055167670705E-02   1.3174243301068471E-02
         1         54   0.0000000000000000E+00   1.5748129610378556E-02   6.4833152331959971E-04   1.1773820612114056E-03
         1         55   0.0000000000000000E+00   2.0155238703515627E-02   1.0185939895013727E-03   2.1372531337773876E-03
         1         56   0.0000000000000000E+00   9.3520973156166934E-02   5.4853886262598236E-04   2.6546631160599787E-03
         1         57   0.0000000000000000E+00   1.2635594638592748E-01   1.2802718210768980E-03   4.0501720495154138E-03
         1         58   0.0000000000000000E+00   6.1768403850670488E-03   1.1880893410407845E-05   9.2283664335074904E-05
         1         59   0.0000000000000000E+00   3.8544802201662038E-03   2.0537207743484131E-05   1.4764430310045882E-04
         1         60   2.7094849887904781E-06   6.0795414037589202E-02   1.3317116084528180E-02   5.8334772081913696E-03
         1         61   0.0000000000000000E+00   1.9045236796837610E-02   5.8129098636087941E-04   1.1729700434296338E-03
         1         62   0.0000000000000000E+00   1.5873413221753414E-02   1.0337699278214077E-03   2.1774064105896723E-03
         1         63   0.0000000000000000E+00   9.3748490094576671E-04   6.3667080649121444E-06   3.2404050362369579E-05
         1         64   0.0000000000000000E+00   3.3427726999505393E-03   2.7699198197175235E-05   1.1435904007970513E-04
         1         65   0.0000000000000000E+00   9.7855714523577991E-04   2.5837420542570591E-06   2.2076443040072544E-05
         1         66   2.5984069338909828E-05   1.8871950417913344E-01   5.4352548666570612E-02   1.8830496087690114E-02
         1         67   0.0000000000000000E+00   1.7556446006774210E-01   1.7613196328715283E-03   5.1077160243311057E-03
         1         68   3.9030966751047211E-02   3.8140096136999080E-01   1.4524917346733696E-01   3.3411024186543424E-02
         1         69   0.0000000000000000E+00   2.4425028060405782E-02   1.4154422881675871E-03   2.2856318815132619E-03
         1         70   0.0000000000000000E+00   2.9876449595018544E-02   2.4982605736148353E-03   4.0643556406290936E-03
         1         71   0.0000000000000000E+00   2.9724892860504332E-01   4.7570423213784893E-03   1.5063060604126216E-02
         1         72   0.0000000000000000E+00   8.4902203478136914E-02   1.3248208527518305E-03   3.5563532108947382E-03
         1         73   0.0000000000000000E+00   4.7019921259870302E-03   1.9870445269807751E-05   1.3015808454092240E-04
         1         74   0.0000000000000000E+00   6.3385268178235378E-03   3.6717338778878825E-05   2.5280045666158622E-04
         1         75   4.3733665624526962E-05   8.0808489019256594E-02   1.2547958859183167E-02   4.5015350286852279E-03
         1         76   0.0000000000000000E+00   3.3073093505611460E-02   2.0039381629495018E-03   3.5033969422621600E-03
         1         77   0.0000000000000000E+00   7.1004083292066124E-03   6.9641964291693268E-04   1.0094023019672502E-03
         1         78   0.0000000000000000E+00   1.7989275844563640E-03   1.1422643001403204E-05   6.2587439484662965E-05
         1         79   0.0000000000000000E+00   5.6617149822840284E-03   6.9818625685619148E-05   2.6350165597308810E-04
         1         80   0.0000000000000000E+00   9.5539359093564028E-04   3.1708851848570017E-06   2.6527966954820371E-05
         1         81   1.4752586757836375E-07   1.9017485606569969E-02   3.8566446329452719E-03   1.9181657149958545E-03
         1         82   0.0000000000000000E+00   3.1950299951239658E-02   2.0646419632015336E-04   8.9502780898157960E-04
         1         83   6.4995890502349469E-06   3.7168030446028746E-02   1.0936922030446113E-02   5.4231421585252829E-03
         1         84   0.0000000000000000E+00   4.1152903270773485E-03   6.0822744710971690E-05   1.4183965756571249E-04
         1         85   0.0000000000000000E+00   7.2711062863746768E-03   2.6830990800389836E-04   7.0070664553220641E-04
         1         86   0.0000000000000000E+00   9.4866377543645162E-03   8.1895462826649294E-06   1.7496580212714180E-04
         1         87   0.0000000000000000E+00   5.6893810774072399E-02   4.1966179785957148E-04   1.8642670653883119E-03
         1         88   0.0000000000000000E+00   2.9799329926387770E-03   1.6405336569116058E-06   2.3821651706831724E-05
         1         89   0.0000000000000000E+00   7.1656903433055231E-04   2.0858688070413236E-06   1.6745549074879503E-05
         1         90   1.9940234468793211E-08   2.7928036074833459E-02   7.1267635451029840E-03   4.3809194131587004E-03
         1         91   0.0000000000000000E+00   4.5405742473353765E-03   5.4381220570581541E-05   1.4425521145217528E-04
         1         92   0.0000000000000000E+00   1.3049708551569672E-02   6.4227926468063607E-04   1.6560695171575592E-03
         1         93   0.0000000000000000E+00   1.9722283629013080E-04   5.4196425875278889E-07   3.4946866479678090E-06
         1         94   0.0000000000000000E+00   6.0662730352092074E-04   3.4149377628285457E-06   1.7884668527847789E-05
         1         95   0.0000000000000000E+00   2.3472643319640704E-04   3.9908094896950152E-07   3.4587756048219128E-06
         1         96   1.7675078754036017E-05   9.7329103024175162E-02   3.0407664979806744E-02   9.8108274453284176E-03
         1         97   0.0000000000000000E+00   9.0136850766022986E-02   7.4125050435523557E-04   2.4870258787915603E-03
         1         98   2.6027014808566638E-02   2.3287886353915258E-01   1.0151089399432078E-01   2.2287349629653001E-02
         1         99   0.0000000000000000E+00   1.1322252539696541E-02   5.7538165197918703E-04   8.8069664364471547E-04
         1        100   0.0000000000000000E+00   1.4489081173105694E-02   1.4018296213395831E-03   2.1213115539622453E-03
         1        101   0.0000000000000000E+00   1.6908151648660508E-01   3.5855547385737134E-03   1.0626684946393065E-02
         1        102   0.0000000000000000E+00   2.9359371001214381E-02   4.2223055186348259E-04   1.2110631621362312E-03
         1        103   0.0000000000000000E+00   1.0685173739788461E-03   6.6921973464630877E-06   4.3724631062510716E-05
         1        104   0.0000000000000000E+00   2.0848183885408024E-03   1.2487606904177061E-05   8.4838364909946447E-05
         1        105   8.6109509190311045E-06   3.5636377598278549E-02   5.2007500508284895E-03   1.8764693826545434E-03
         1        106   0.0000000000000000E+00   1.5854716139326361E-02   1.1114190250066025E-03   1.8976437474158214E-03
         1        107   0.0000000000000000E+00   2.7696148272872241E-03   2.5344192390987593E-04   3.4734893593099165E-04
         1        108   0.0000000000000000E+00   5.1110488876808925E-04   3.6565883580618048E-06   2.2458734851994194E-05
         1        109   0.0000000000000000E+00   2.7488232483885524E-03   3.3249467859398521E-05   1.2133596035294005E-04
         1        110   0.0000000000000000E+00   1.9143401077886335E-04   7.6488424718101740E-07   6.1363283298698602E-06
         2          1   8.5564988734705819E-21   1.0363937784521336E-01   1.3553269171929998E-04   1.8678588487193925E-03
         2          2   1.3614996695142398E-01   1.3670376941759829E-01   1.3642652400127903E-01   1.0217274780803333E-04
         2          3   0.0000000000000000E+00   3.9255097612000715E-03   3.1237261051957201E-06   5.1853755231857968E-05
         2          4   0.0000000000000000E+00   1.3593846362333156E-04   5.4720068061274309E-08   1.2032715550450935E-06
         2          5   0.0000000000000000E+00   7.0843537256441117E-05   6.0328344655248409E-08   9.2645657584392726E-07
         2          6   3.1682544605093410E-17   2.7798766171260814E-01   1.4386748412840637E-03   9.5893924087149113E-03
         2          7   5.9734988125924771E-01   5.9874062617347434E-01   5.9804164268729387E-01   2.5004287153208344E-04
         2          8   0.0000000000000000E+00   3.9747726840852565E-02   1.0010260888533348E-04   6.9844914475066119E-04
         2          9   0.0000000000000000E+00   3.4429390107312001E-03   2.6696652615399620E-06   3.9815171644192191E-05
         2         10   0.0000000000000000E+00   2.0909793787141388E-03   3.1537645945163952E-06   3.5756538245328815E-05
         2         11   4.3292458164519627E-14   5.3526069521013908E-01   1.0477402557099317E-02   2.7253304914625173E-02
         2         12   1.2070698630788796E+00   1.2083137295040616E+00   1.2076848307401227E+00   2.5230863461703137E-04
         2         13   0.0000000000000000E+00   1.5226088644909155E-01   1.6623289997254583E-03   4.9795546081462354E-03
         2         14   0.0000000000000000E+00   3.2079040580500755E-02   5.6600654337713055E-05   5.4739427800070328E-04
         2         15   0.0000000000000000E+00   2.2704099366322495E-02   6.9198494016301131E-05   5.5627244720780347E-04
         2         16   2.1841087920762124E-11   7.5618647817098306E-01   4.7838218284673724E-02   5.4175331878475681E-02
         2         17   1.5734693081990405E+00   1.5749755250124633E+00   1.5741203218313309E+00   2.7956807519300330E-04
         2         18   0.0000000000000000E+00   3.3587298389760606E-01   1.3383145323956659E-02   1.9990569076395587E-02
         2         19   0.0000000000000000E+00   1.0995627256013428E-01   5.3669047202438273E-04   3.3681075441535781E-03
         2         20   0.0000000000000000E+00   9.0691262989273186E-02   6.5817034289567824E-04   3.6841018473287254E-03
         2         21   4.0703472521271612E-09   8.1879539693102865E-01   1.2757980664322030E-01   7.9130802210876372E-02
         2         22   1.4565000084987554E+00   1.4571170478987352E+00   1.4568084699931598E+00   1.2591249204690222E-04
         2         23   0.0000000000000000E+00   5.4630673345649816E-01   5.1492804404875490E-02   4.1374617717873458E-02
         2         24   0.0000000000000000E+00   1.3865160371663091E-01   2.3503174344607037E-03   1.0037351630352478E-02
         2         25   0.0000000000000000E+00   1.3326996552536505E-01   2.8235209247792583E-03   1.1176544366495778E-02
         2         26   2.8037978590031819E-07   8.7163071116567137E-01   2.0085853857680533E-01   8.0847375784145303E-02
         2         27   9.5946412716526785E-01   9.6015625416887163E-01   9.5986079262579393E-01   1.2625192416635393E-04
         2         28   0.0000000000000000E+00   5.3120263112449972E-01   9.8737228090975418E-02   4.6362690965163267E-02
         2         29   0.0000000000000000E+00   1.1739539153286892E-01   4.9947691768198604E-03   1.5354077678973066E-02
         2         30   0.0000000000000000E+00   1.4249031192199124E-01   5.7842865732975392E-03   1.6802099521067110E-02
         2         31   7.1436599975784222E-06   6.7461979632641123E-01   1.9557759461211197E-01   5.8921066955539156E-02
         2         32   6.0943791277323400E-01   6.0985016516278823E-01   6.0964715158316440E-01   7.5461458592579697E-05
         2         33   0.0000000000000000E+00   3.7185154662832925E-01   1.0294879077880728E-01   3.4279708211934219E-02
         2         34   0.0000000000000000E+00   9.4576068538867464E-02   5.5876013236723010E-03   1.3120987266575838E-02
         2         35   0.0000000000000000E+00   9.4238458065789427E-02   6.1733301631375038E-03   1.3923719457990277E-02
         2         36   6.7374301673430969E-05   3.4336866302874519E-01   1.2338084680840547E-01   3.2544881097495329E-02
         2         37   3.2874805380094435E-01   3.2896077565004239E-01   3.2886930402706749E-01   3.2709030449043794E-05
         2         38   0.0000000000000000E+00   2.0550984221752278E-01   6.4667903655583919E-02   1.9148062765085239E-02
         2         39   0.0000000000000000E+00   5.1892901706454643E-02   3.6564420825432554E-03   7.2751047251425555E-03
         2         40   0.0000000000000000E+00   4.5749109952915472E-02   3.8306285015370185E-03   7.4753460699246840E-03
         2         41   2.3542211913762663E-04   1.3309290327822390E-01   5.0960547638034093E-02   1.3135701341340471E-02
         2         42   1.2348454445928132E-01   1.2355199323945515E-01   1.2352116095551648E-01   1.4749060900676592E-05
         2         43   0.0000000000000000E+00   7.2478231055626022E-02   2.5944671406304038E-02   7.7956838644568267E-03
         2         44   0.0000000000000000E+00   2.2431170839828825E-02   1.5073445642607422E-03   2.8365568398757862E-03
         2         45   0.0000000000000000E+00   2.2441271329086378E-02   1.4967508199199597E-03   2.8377888462411036E-03
         2         46   3.0506877310994729E-04   3.4825202284001718E-02   1.3131766722623726E-02   3.5329264092623732E-03
         2         47   2.8015404401633352E-02   2.8028215758289687E-02   2.8021261366782360E-02   2.2704395117153640E-06
         2         48   0.0000000000000000E+00   1.7329229971651882E-02   6.4951048792513000E-03   2.1073504143592141E-03
         2         49   0.0000000000000000E+00   5.5930245958480335E-03   3.8497296907204925E-04   7.2592432989338450E-04
         2         50   0.0000000000000000E+00   5.6835555445619640E-03   3.6563665536039672E-04   7.1250059666420873E-04
         2         51   0.0000000000000000E+00   1.6701562371561157E-02   2.3531777312496010E-04   6.5934884693617617E-04
         2         52   6.0437760336646500E-08   1.0323358745315749E-01   6.4065170039009226E-03   6.1061005122424487E-03
         2         53   0.0000000000000000E+00   1.4061994752454910E-02   2.1757028734283019E-04   5.9503292510025476E-04
         2         54   0.0000000000000000E+00   1.7856459712161431E-03   7.8490414618593608E-06   2.7465384885596876E-05
         2         55   0.0000000000000000E+00   7.1367697229033841E-04   1.0881836096623908E-05   3.6637997212096564E-05
         2         56   9.7801380225502360E-02   9.8074565226463448E-02   9.7933773998349474E-02   5.0380467413548908E-05
         2         57   0.0000000000000000E+00   3.6457097421742198E-02   2.2453166601629337E-03   2.0546242752588488E-03
         2         58   0.0000000000000000E+00   1.0007307306472469E-02   1.0141771269397798E-04   4.1485389802986328E-04
         2         59   0.0000000000000000E+00   8.2909515755720566E-03   1.2085627446911600E-04   4.5753238806677589E-04
         2         60   0.0000000000000000E+00   2.7800944187096367E-03   3.7814152260613427E-05   1.1698909318896475E-04
         2         61   0.0000000000000000E+00   7.8571487727410359E-04   5.1362344442007892E-06   1.8059346391733616E-05
         2         62   0.0000000000000000E+00   1.7236875776516927E-04   3.3394742234419557E-06   1.0079668118111879E-05
         2         63   0.0000000000000000E+00   1.7841308488426343E-05   1.1195780323083573E-08   2.0624412451654097E-07
         2         64   0.0000000000000000E+00   2.7744446623578659E-04   7.7524564270229765E-07   5.8217315140395948E-06
         2         65   0.0000000000000000E+00   1.8908686390215735E-05   1.2626033070015225E-08   2.7689937264263712E-07
         2         66   0.0000000000000000E+00   5.9267390901614682E-02   2.1148501761181155E-03   2.5684276085416089E-03
         2         67   4.0522536329226845E-07   2.2108703776381533E-01   1.1569929630408302E-02   1.1624294410455019E-02
         2         68   0.0000000000000000E+00   9.7481778230258734E-02   4.1957359843337204E-03   4.6499107049590895E-03
         2         69   0.0000000000000000E+00   6.7210275081642373E-03   4.5941130204307798E-05   1.4802617166207368E-04
         2         70   0.0000000000000000E+00   4.9107763720386529E-03   8.6113503757360039E-05   2.7065637915187746E-04
         2         71   2.4272277733274211E-01   2.4311884039499182E-01   2.4292396598973265E-01   9.0936124696942061E-05
         2         72   0.0000000000000000E+00   6.0170422911527868E-02   3.8467636473888370E-03   3.4004485020037454E-03
         2         73   0.0000000000000000E+00   1.0758543316586404E-02   1.7124914646628550E-04   5.7719090172806819E-04
         2         74   0.0000000000000000E+00   8.8697383310902597E-03   2.0468325522819721E-04   6.4475581398749373E-04
         2         75   0.0000000000000000E+00   1.5624237665653400E-02   2.1674750942323362E-04   6.1809939221705234E-04
         2         76   0.0000000000000000E+00   5.0546009519124094E-03   4.6196392122942206E-05   1.5024052790995246E-04
         2         77   0.0000000000000000E+00   7.9148933103615653E-04   1.6660493356295863E-05   4.6964109656022868E-05
         2         78   0.0000000000000000E+00   5.5769961579502568E-05   5.6103807446458049E-08   9.2689553038170868E-07
         2         79   0.0000000000000000E+00   1.6297739627109758E-03   5.3996534335991311E-06   3.6739352088478214E-05
         2         80   0.0000000000000000E+00   3.3947784114497160E-05   2.7406158431208437E-08   5.3739233402120311E-07
         2         81   0.0000000000000000E+00   1.6564374666544037E-03   4.1282116370651507E-06   5.5838544889815448E-05
         2         82   4.1804785524439587E-10   2.0658209943845332E-02   7.4036168483074087E-04   1.0211634689182567E-03
         2         83   0.0000000000000000E+00   4.8970260816426142E-04   1.8030856469053420E-06   1.6442919231727242E-05
         2         84   0.0000000000000000E+00   3.5236218795369707E-05   4.6333462650442030E-08   2.7282912282430492E-07
         2         85   0.0000000000000000E+00   2.0227355183475555E-05   5.5077429675116207E-08   2.5120241671751759E-07
         2         86   3.0379972791150855E-02   3.0487145402923341E-02   3.0432645644733042E-02   1.9433104338264833E-05
         2         87   0.0000000000000000E+00   4.7824465901081768E-03   2.3520670000499867E-04   2.5610057872757567E-04
         2         88   0.0000000000000000E+00   1.2707490891419567E-03   1.0387291213708867E-05   4.8891576843380499E-05
         2         89   0.0000000000000000E+00   1.0469965158816344E-03   1.2428028096335238E-05   5.3710428280621985E-05
         2         90   0.0000000000000000E+00   3.9900991366766349E-05   2.5113559802582824E-07   1.4336246055328938E-06
         2         91   0.0000000000000000E+00   4.7193975175503955E-06   1.2156594434080181E-08   5.5581993676700063E-08
         2         92   0.0000000000000000E+00   6.1288443690141615E-06   2.2510192234361999E-08   9.2346529979839705E-08
         2         93   0.0000000000000000E+00   3.5248274067249782E-07   1.6222037233222395E-10   3.9577973589620368E-09
         2         94   0.0000000000000000E+00   8.7844148410252260E-07   2.5835462337764412E-09   2.0517516097004873E-08
         2         95   0.0000000000000000E+00   8.8190255648853942E-07   4.4497429432065468E-10   1.1719028641280882E-08
         2         96   0.0000000000000000E+00   3.3884983118834811E-02   1.6172973569409650E-03   1.6726480996651744E-03
         2         97   2.7573854589341808E-07   1.1881331916568393E-01   4.1800031623204078E-03   5.4865244397298736E-03
         2         98   0.0000000000000000E+00   7.1373257608470742E-02   3.7025058863242688E-03   3.6398196773000922E-03
         2         99   0.0000000000000000E+00   3.5829264264139295E-03   2.9183831220900638E-05   9.3103364388949332E-05
         2        100   0.0000000000000000E+00   3.3125491974701458E-03   6.1588306605157503E-05   1.9028062763579170E-04
         2        101   1.5775510862564276E-01   1.5800222898880917E-01   1.5787276489791188E-01   5.6490456597735454E-05
         2        102   0.0000000000000000E+00   2.4429415792129670E-02   1.2535528529096251E-03   1.2193710664136850E-03
         2        103   0.0000000000000000E+00   2.7671457495974808E-03   5.4366584360629724E-05   1.6408876585221273E-04
         2        104   0.0000000000000000E+00   2.7131623929919722E-03   6.5260883275804123E-05   1.8516997311562755E-04
         2        105   0.0000000000000000E+00   9.9226422963589779E-03   1.3653219614899960E-04   3.8278943935887775E-04
         2        106   0.0000000000000000E+00   3.8048988860192074E-03   3.3968415715275156E-05   1.0859147325201449E-04
         2        107   0.0000000000000000E+00   4.6433933658635929E-04   9.7689737586235279E-06   2.6823645893474664E-05
         2        108   0.0000000000000000E+00   2.4477423533241372E-05   3.4380713236125032E-08   5.8279442377533738E-07
         2        109   0.0000000000000000E+00   1.0263206817044798E-03   3.6443889511502849E-06   2.3926607151966880E-05
         2        110   0.0000000000000000E+00   9.2047641553427189E-06   9.0512785351801789E-09   1.6047617003169462E-07
         3          1   8.1909099674249530E-02   4.4214569002629223E-01   3.0867710413595428E-01   1.4621896471916640E-02
         3          2   0.0000000000000000E+00   7.8623222369358873E-03   3.6877549350779895E-06   8.2557404555066627E-05
         3          3   1.2725170414143220E-10   7.2504326750466273E-03   1.4954980228486077E-04   1.9502534950191771E-04
         3          4   0.0000000000000000E+00   8.7739671300352002E-03   9.7112335764693123E-05   2.7408069481114921E-04
         3          5   0.0000000000000000E+00   1.6352915604665817E-04   1.1831736303079355E-06   3.9731367437821537E-06
         3          6   3.5024598547816344E-01   9.8275456743177214E-01   7.1276171139413469E-01   4.8437203528416670E-02
         3          7   0.0000000000000000E+00   8.9286861815672941E-02   1.1817741937010849E-04   1.2050281938690874E-03
         3          8   3.9479163065490901E-08   9.7263970319946089E-02   4.4408487387269501E-03   3.4205833011712074E-03
         3          9   0.0000000000000000E+00   6.8066124416307258E-02   1.7545743979038855E-03   4.2212075686261577E-03
         3         10   0.0000000000000000E+00   3.9612933912201807E-03   5.7563560187696656E-05   1.5584226575672606E-04
         3         11   4.5846088623236947E-01   1.3071138367516650E+00   7.7984623287667054E-01   1.2597855913382222E-01
         3         12   0.0000000000000000E+00   4.2456568667724265E-01   1.9624838305331246E-03   9.4281022874740418E-03
         3         13   4.5572954057624200E-06   4.8554627059186656E-01   5.2520896568162813E-02   2.6086687322123953E-02
         3         14   0.0000000000000000E+00   2.1102345922550242E-01   1.2429518992347571E-02   2.6340338003369847E-02
         3         15   0.0000000000000000E+00   3.5300747970230389E-02   1.0957475300056041E-03   2.4586816503174942E-03
         3         16   1.3380254365904454E-01   1.7918027288204967E+00   7.2036149432067420E-01   1.8256639158192534E-01
         3         17   0.0000000000000000E+00   9.6480783007512372E-01   1.5799643935874068E-02   4.6622733549365601E-02