LAMMPS Description

1024  atoms
464  bonds
232  angles
0  dihedrals
0  impropers

5  atom types
1  bond types
1  angle types
0  dihedral types
0  improper types

0 19.76 xlo xhi
0 21.39 ylo yhi
0 34.85 zlo zhi

Masses

1 12.011  # C
2 15.9994  # O
3 1.008  # H
4 22.9898  # Na
5 35.453  # Cl

Atoms

1 1 1 0.0 0.618 0.356 7.500
2 2 1 0.0 1.853 3.922 7.500
3 3 1 0.0 1.853 2.495 7.500
4 4 1 0.0 0.618 1.782 7.500
5 5 1 0.0 0.618 0.356 27.350
6 6 1 0.0 1.853 3.922 27.350
7 7 1 0.0 1.853 2.495 27.350
8 8 1 0.0 0.618 1.782 27.350
9 9 1 0.0 0.618 4.634 7.500
10 10 1 0.0 1.853 8.200 7.500
11 11 1 0.0 1.853 6.774 7.500
12 12 1 0.0 0.618 6.060 7.500
13 13 1 0.0 0.618 4.634 27.350
14 14 1 0.0 1.853 8.200 27.350
15 15 1 0.0 1.853 6.774 27.350
16 16 1 0.0 0.618 6.060 27.350
17 17 1 0.0 0.618 8.912 7.500
18 18 1 0.0 1.853 12.477 7.500
19 19 1 0.0 1.853 11.051 7.500
20 20 1 0.0 0.618 10.338 7.500
21 21 1 0.0 0.618 8.912 27.350
22 22 1 0.0 1.853 12.477 27.350
23 23 1 0.0 1.853 11.051 27.350
24 24 1 0.0 0.618 10.338 27.350
25 25 1 0.0 0.618 13.191 7.500
26 26 1 0.0 1.853 16.755 7.500
27 27 1 0.0 1.853 15.330 7.500
28 28 1 0.0 0.618 14.616 7.500
29 29 1 0.0 0.618 13.191 27.350
30 30 1 0.0 1.853 16.755 27.350
31 31 1 0.0 1.853 15.330 27.350
32 32 1 0.0 0.618 14.616 27.350
33 33 1 0.0 0.618 17.468 7.500
34 34 1 0.0 1.853 21.034 7.500
35 35 1 0.0 1.853 19.607 7.500
36 36 1 0.0 0.618 18.894 7.500
37 37 1 0.0 0.618 17.468 27.350
38 38 1 0.0 1.853 21.034 27.350
39 39 1 0.0 1.853 19.607 27.350
40 40 1 0.0 0.618 18.894 27.350
41 41 1 0.0 3.088 0.356 7.500
42 42 1 0.0 4.322 3.922 7.500
43 43 1 0.0 4.322 2.495 7.500
44 44 1 0.0 3.088 1.782 7.500
45 45 1 0.0 3.088 0.356 27.350
46 46 1 0.0 4.322 3.922 27.350
47 47 1 0.0 4.322 2.495 27.350
48 48 1 0.0 3.088 1.782 27.350
49 49 1 0.0 3.088 4.634 7.500
50 50 1 0.0 4.322 8.200 7.500
51 51 1 0.0 4.322 6.774 7.500
52 52 1 0.0 3.088 6.060 7.500
53 53 1 0.0 3.088 4.634 27.350
54 54 1 0.0 4.322 8.200 27.350
55 55 1 0.0 4.322 6.774 27.350
56 56 1 0.0 3.088 6.060 27.350
57 57 1 0.0 3.088 8.912 7.500
58 58 1 0.0 4.322 12.477 7.500
59 59 1 0.0 4.322 11.051 7.500
60 60 1 0.0 3.088 10.338 7.500
61 61 1 0.0 3.088 8.912 27.350
62 62 1 0.0 4.322 12.477 27.350
63 63 1 0.0 4.322 11.051 27.350
64 64 1 0.0 3.088 10.338 27.350
65 65 1 0.0 3.088 13.191 7.500
66 66 1 0.0 4.322 16.755 7.500
67 67 1 0.0 4.322 15.330 7.500
68 68 1 0.0 3.088 14.616 7.500
69 69 1 0.0 3.088 13.191 27.350
70 70 1 0.0 4.322 16.755 27.350
71 71 1 0.0 4.322 15.330 27.350
72 72 1 0.0 3.088 14.616 27.350
73 73 1 0.0 3.088 17.468 7.500
74 74 1 0.0 4.322 21.034 7.500
75 75 1 0.0 4.322 19.607 7.500
76 76 1 0.0 3.088 18.894 7.500
77 77 1 0.0 3.088 17.468 27.350
78 78 1 0.0 4.322 21.034 27.350
79 79 1 0.0 4.322 19.607 27.350
80 80 1 0.0 3.088 18.894 27.350
81 81 1 0.0 5.558 0.356 7.500
82 82 1 0.0 6.793 3.922 7.500
83 83 1 0.0 6.793 2.495 7.500
84 84 1 0.0 5.558 1.782 7.500
85 85 1 0.0 5.558 0.356 27.350
86 86 1 0.0 6.793 3.922 27.350
87 87 1 0.0 6.793 2.495 27.350
88 88 1 0.0 5.558 1.782 27.350
89 89 1 0.0 5.558 4.634 7.500
90 90 1 0.0 6.793 8.200 7.500
91 91 1 0.0 6.793 6.774 7.500
92 92 1 0.0 5.558 6.060 7.500
93 93 1 0.0 5.558 4.634 27.350
94 94 1 0.0 6.793 8.200 27.350
95 95 1 0.0 6.793 6.774 27.350
96 96 1 0.0 5.558 6.060 27.350
97 97 1 0.0 5.558 8.912 7.500
98 98 1 0.0 6.793 12.477 7.500
99 99 1 0.0 6.793 11.051 7.500
100 100 1 0.0 5.558 10.338 7.500
101 101 1 0.0 5.558 8.912 27.350
102 102 1 0.0 6.793 12.477 27.350
103 103 1 0.0 6.793 11.051 27.350
104 104 1 0.0 5.558 10.338 27.350
105 105 1 0.0 5.558 13.191 7.500
106 106 1 0.0 6.793 16.755 7.500
107 107 1 0.0 6.793 15.330 7.500
108 108 1 0.0 5.558 14.616 7.500
109 109 1 0.0 5.558 13.191 27.350
110 110 1 0.0 6.793 16.755 27.350
111 111 1 0.0 6.793 15.330 27.350
112 112 1 0.0 5.558 14.616 27.350
113 113 1 0.0 5.558 17.468 7.500
114 114 1 0.0 6.793 21.034 7.500
115 115 1 0.0 6.793 19.607 7.500
116 116 1 0.0 5.558 18.894 7.500
117 117 1 0.0 5.558 17.468 27.350
118 118 1 0.0 6.793 21.034 27.350
119 119 1 0.0 6.793 19.607 27.350
120 120 1 0.0 5.558 18.894 27.350
121 121 1 0.0 8.027 0.356 7.500
122 122 1 0.0 9.262 3.922 7.500
123 123 1 0.0 9.262 2.495 7.500
124 124 1 0.0 8.027 1.782 7.500
125 125 1 0.0 8.027 0.356 27.350
126 126 1 0.0 9.262 3.922 27.350
127 127 1 0.0 9.262 2.495 27.350
128 128 1 0.0 8.027 1.782 27.350
129 129 1 0.0 8.027 4.634 7.500
130 130 1 0.0 9.262 8.200 7.500
131 131 1 0.0 9.262 6.774 7.500
132 132 1 0.0 8.027 6.060 7.500
133 133 1 0.0 8.027 4.634 27.350
134 134 1 0.0 9.262 8.200 27.350
135 135 1 0.0 9.262 6.774 27.350
136 136 1 0.0 8.027 6.060 27.350
137 137 1 0.0 8.027 8.912 7.500
138 138 1 0.0 9.262 12.477 7.500
139 139 1 0.0 9.262 11.051 7.500
140 140 1 0.0 8.027 10.338 7.500
141 141 1 0.0 8.027 8.912 27.350
142 142 1 0.0 9.262 12.477 27.350
143 143 1 0.0 9.262 11.051 27.350
144 144 1 0.0 8.027 10.338 27.350
145 145 1 0.0 8.027 13.191 7.500
146 146 1 0.0 9.262 16.755 7.500
147 147 1 0.0 9.262 15.330 7.500
148 148 1 0.0 8.027 14.616 7.500
149 149 1 0.0 8.027 13.191 27.350
150 150 1 0.0 9.262 16.755 27.350
151 151 1 0.0 9.262 15.330 27.350
152 152 1 0.0 8.027 14.616 27.350
153 153 1 0.0 8.027 17.468 7.500
154 154 1 0.0 9.262 21.034 7.500
155 155 1 0.0 9.262 19.607 7.500
156 156 1 0.0 8.027 18.894 7.500
157 157 1 0.0 8.027 17.468 27.350
158 158 1 0.0 9.262 21.034 27.350
159 159 1 0.0 9.262 19.607 27.350
160 160 1 0.0 8.027 18.894 27.350
161 161 1 0.0 10.498 0.356 7.500
162 162 1 0.0 11.733 3.922 7.500
163 163 1 0.0 11.733 2.495 7.500
164 164 1 0.0 10.498 1.782 7.500
165 165 1 0.0 10.498 0.356 27.350
166 166 1 0.0 11.733 3.922 27.350
167 167 1 0.0 11.733 2.495 27.350
168 168 1 0.0 10.498 1.782 27.350
169 169 1 0.0 10.498 4.634 7.500
170 170 1 0.0 11.733 8.200 7.500
171 171 1 0.0 11.733 6.774 7.500
172 172 1 0.0 10.498 6.060 7.500
173 173 1 0.0 10.498 4.634 27.350
174 174 1 0.0 11.733 8.200 27.350
175 175 1 0.0 11.733 6.774 27.350
176 176 1 0.0 10.498 6.060 27.350
177 177 1 0.0 10.498 8.912 7.500
178 178 1 0.0 11.733 12.477 7.500
179 179 1 0.0 11.733 11.051 7.500
180 180 1 0.0 10.498 10.338 7.500
181 181 1 0.0 10.498 8.912 27.350
182 182 1 0.0 11.733 12.477 27.350
183 183 1 0.0 11.733 11.051 27.350
184 184 1 0.0 10.498 10.338 27.350
185 185 1 0.0 10.498 13.191 7.500
186 186 1 0.0 11.733 16.755 7.500
187 187 1 0.0 11.733 15.330 7.500
188 188 1 0.0 10.498 14.616 7.500
189 189 1 0.0 10.498 13.191 27.350
190 190 1 0.0 11.733 16.755 27.350
191 191 1 0.0 11.733 15.330 27.350
192 192 1 0.0 10.498 14.616 27.350
193 193 1 0.0 10.498 17.468 7.500
194 194 1 0.0 11.733 21.034 7.500
195 195 1 0.0 11.733 19.607 7.500
196 196 1 0.0 10.498 18.894 7.500
197 197 1 0.0 10.498 17.468 27.350
198 198 1 0.0 11.733 21.034 27.350
199 199 1 0.0 11.733 19.607 27.350
200 200 1 0.0 10.498 18.894 27.350
201 201 1 0.0 12.968 0.356 7.500
202 202 1 0.0 14.203 3.922 7.500
203 203 1 0.0 14.203 2.495 7.500
204 204 1 0.0 12.968 1.782 7.500
205 205 1 0.0 12.968 0.356 27.350
206 206 1 0.0 14.203 3.922 27.350
207 207 1 0.0 14.203 2.495 27.350
208 208 1 0.0 12.968 1.782 27.350
209 209 1 0.0 12.968 4.634 7.500
210 210 1 0.0 14.203 8.200 7.500
211 211 1 0.0 14.203 6.774 7.500
212 212 1 0.0 12.968 6.060 7.500
213 213 1 0.0 12.968 4.634 27.350
214 214 1 0.0 14.203 8.200 27.350
215 215 1 0.0 14.203 6.774 27.350
216 216 1 0.0 12.968 6.060 27.350
217 217 1 0.0 12.968 8.912 7.500
218 218 1 0.0 14.203 12.477 7.500
219 219 1 0.0 14.203 11.051 7.500
220 220 1 0.0 12.968 10.338 7.500
221 221 1 0.0 12.968 8.912 27.350
222 222 1 0.0 14.203 12.477 27.350
223 223 1 0.0 14.203 11.051 27.350
224 224 1 0.0 12.968 10.338 27.350
225 225 1 0.0 12.968 13.191 7.500
226 226 1 0.0 14.203 16.755 7.500
227 227 1 0.0 14.203 15.330 7.500
228 228 1 0.0 12.968 14.616 7.500
229 229 1 0.0 12.968 13.191 27.350
230 230 1 0.0 14.203 16.755 27.350
231 231 1 0.0 14.203 15.330 27.350
232 232 1 0.0 12.968 14.616 27.350
233 233 1 0.0 12.968 17.468 7.500
234 234 1 0.0 14.203 21.034 7.500
235 235 1 0.0 14.203 19.607 7.500
236 236 1 0.0 12.968 18.894 7.500
237 237 1 0.0 12.968 17.468 27.350
238 238 1 0.0 14.203 21.034 27.350
239 239 1 0.0 14.203 19.607 27.350
240 240 1 0.0 12.968 18.894 27.350
241 241 1 0.0 15.438 0.356 7.500
242 242 1 0.0 16.673 3.922 7.500
243 243 1 0.0 16.673 2.495 7.500
244 244 1 0.0 15.438 1.782 7.500
245 245 1 0.0 15.438 0.356 27.350
246 246 1 0.0 16.673 3.922 27.350
247 247 1 0.0 16.673 2.495 27.350
248 248 1 0.0 15.438 1.782 27.350
249 249 1 0.0 15.438 4.634 7.500
250 250 1 0.0 16.673 8.200 7.500
251 251 1 0.0 16.673 6.774 7.500
252 252 1 0.0 15.438 6.060 7.500
253 253 1 0.0 15.438 4.634 27.350
254 254 1 0.0 16.673 8.200 27.350
255 255 1 0.0 16.673 6.774 27.350
256 256 1 0.0 15.438 6.060 27.350
257 257 1 0.0 15.438 8.912 7.500
258 258 1 0.0 16.673 12.477 7.500
259 259 1 0.0 16.673 11.051 7.500
260 260 1 0.0 15.438 10.338 7.500
261 261 1 0.0 15.438 8.912 27.350
262 262 1 0.0 16.673 12.477 27.350
263 263 1 0.0 16.673 11.051 27.350
264 264 1 0.0 15.438 10.338 27.350
265 265 1 0.0 15.438 13.191 7.500
266 266 1 0.0 16.673 16.755 7.500
267 267 1 0.0 16.673 15.330 7.500
268 268 1 0.0 15.438 14.616 7.500
269 269 1 0.0 15.438 13.191 27.350
270 270 1 0.0 16.673 16.755 27.350
271 271 1 0.0 16.673 15.330 27.350
272 272 1 0.0 15.438 14.616 27.350
273 273 1 0.0 15.438 17.468 7.500
274 274 1 0.0 16.673 21.034 7.500
275 275 1 0.0 16.673 19.607 7.500
276 276 1 0.0 15.438 18.894 7.500
277 277 1 0.0 15.438 17.468 27.350
278 278 1 0.0 16.673 21.034 27.350
279 279 1 0.0 16.673 19.607 27.350
280 280 1 0.0 15.438 18.894 27.350
281 281 1 0.0 17.908 0.356 7.500
282 282 1 0.0 19.143 3.922 7.500
283 283 1 0.0 19.143 2.495 7.500
284 284 1 0.0 17.908 1.782 7.500
285 285 1 0.0 17.908 0.356 27.350
286 286 1 0.0 19.143 3.922 27.350
287 287 1 0.0 19.143 2.495 27.350
288 288 1 0.0 17.908 1.782 27.350
289 289 1 0.0 17.908 4.634 7.500
290 290 1 0.0 19.143 8.200 7.500
291 291 1 0.0 19.143 6.774 7.500
292 292 1 0.0 17.908 6.060 7.500
293 293 1 0.0 17.908 4.634 27.350
294 294 1 0.0 19.143 8.200 27.350
295 295 1 0.0 19.143 6.774 27.350
296 296 1 0.0 17.908 6.060 27.350
297 297 1 0.0 17.908 8.912 7.500
298 298 1 0.0 19.143 12.477 7.500
299 299 1 0.0 19.143 11.051 7.500
300 300 1 0.0 17.908 10.338 7.500
301 301 1 0.0 17.908 8.912 27.350
302 302 1 0.0 19.143 12.477 27.350
303 303 1 0.0 19.143 11.051 27.350
304 304 1 0.0 17.908 10.338 27.350
305 305 1 0.0 17.908 13.191 7.500
306 306 1 0.0 19.143 16.755 7.500
307 307 1 0.0 19.143 15.330 7.500
308 308 1 0.0 17.908 14.616 7.500
309 309 1 0.0 17.908 13.191 27.350
310 310 1 0.0 19.143 16.755 27.350
311 311 1 0.0 19.143 15.330 27.350
312 312 1 0.0 17.908 14.616 27.350
313 313 1 0.0 17.908 17.468 7.500
314 314 1 0.0 19.143 21.034 7.500
315 315 1 0.0 19.143 19.607 7.500
316 316 1 0.0 17.908 18.894 7.500
317 317 1 0.0 17.908 17.468 27.350
318 318 1 0.0 19.143 21.034 27.350
319 319 1 0.0 19.143 19.607 27.350
320 320 1 0.0 17.908 18.894 27.350
321 321 2 -0.8476 1.822 19.287 11.714
322 321 3 0.4238 1.867 18.334 11.787
323 321 3 0.4238 0.896 19.494 11.840
324 322 2 -0.8476 0.043 5.730 22.208
325 322 3 0.4238 -0.262 6.637 22.167
326 322 3 0.4238 0.997 5.800 22.254
327 323 2 -0.8476 8.175 2.421 15.269
328 323 3 0.4238 7.399 1.884 15.111
329 323 3 0.4238 8.025 3.216 14.758
330 324 2 -0.8476 0.066 3.129 9.904
331 324 3 0.4238 0.783 3.761 9.853
332 324 3 0.4238 -0.714 3.662 10.056
333 325 2 -0.8476 4.926 6.161 11.235
334 325 3 0.4238 5.850 5.943 11.119
335 325 3 0.4238 4.526 5.975 10.386
336 326 2 -0.8476 12.798 14.823 23.281
337 326 3 0.4238 13.155 14.317 22.550
338 326 3 0.4238 11.881 14.965 23.048
339 327 2 -0.8476 3.542 10.749 12.925
340 327 3 0.4238 4.346 11.049 12.500
341 327 3 0.4238 3.442 9.842 12.636
342 328 2 -0.8476 11.494 17.442 17.255
343 328 3 0.4238 11.885 18.308 17.141
344 328 3 0.4238 10.576 17.619 17.460
345 329 2 -0.8476 19.614 17.593 24.080
346 329 3 0.4238 19.521 18.542 23.991
347 329 3 0.4238 19.692 17.274 23.181
348 330 2 -0.8476 3.102 15.496 10.034
349 330 3 0.4238 2.185 15.353 9.797
350 330 3 0.4238 3.217 15.011 10.851
351 331 2 -0.8476 12.879 10.859 18.467
352 331 3 0.4238 13.374 11.330 17.796
353 331 3 0.4238 13.528 10.301 18.896
354 332 2 -0.8476 11.962 19.567 11.059
355 332 3 0.4238 12.734 19.131 10.699
356 332 3 0.4238 11.622 18.954 11.712
357 333 2 -0.8476 14.596 5.066 15.237
358 333 3 0.4238 13.806 5.342 15.703
359 333 3 0.4238 14.627 5.630 14.464
360 334 2 -0.8476 18.077 12.569 20.355
361 334 3 0.4238 17.135 12.742 20.362
362 334 3 0.4238 18.479 13.438 20.343
363 335 2 -0.8476 14.869 7.502 12.838
364 335 3 0.4238 14.549 8.358 13.122
365 335 3 0.4238 14.144 6.903 13.019
366 336 2 -0.8476 17.142 3.162 15.616
367 336 3 0.4238 16.950 2.369 16.118
368 336 3 0.4238 16.298 3.422 15.247
369 337 2 -0.8476 11.052 11.789 11.530
370 337 3 0.4238 10.615 11.044 11.118
371 337 3 0.4238 11.740 12.036 10.912
372 338 2 -0.8476 4.038 11.360 18.449
373 338 3 0.4238 4.881 11.807 18.368
374 338 3 0.4238 3.964 11.154 19.381
375 339 2 -0.8476 4.001 2.143 12.875
376 339 3 0.4238 4.879 1.813 12.685
377 339 3 0.4238 3.461 1.356 12.956
378 340 2 -0.8476 1.215 11.267 15.626
379 340 3 0.4238 1.798 11.834 15.122
380 340 3 0.4238 1.539 10.381 15.459
381 341 2 -0.8476 4.795 12.566 20.558
382 341 3 0.4238 3.852 12.719 20.503
383 341 3 0.4238 4.874 11.682 20.917
384 342 2 -0.8476 15.607 21.055 14.814
385 342 3 0.4238 14.934 21.597 14.400
386 342 3 0.4238 15.386 20.160 14.556
387 343 2 -0.8476 19.240 3.317 24.902
388 343 3 0.4238 19.241 2.905 24.038
389 343 3 0.4238 19.024 4.233 24.731
390 344 2 -0.8476 8.794 21.235 24.550
391 344 3 0.4238 9.729 21.050 24.466
392 344 3 0.4238 8.675 22.074 24.104
393 345 2 -0.8476 6.437 0.291 13.985
394 345 3 0.4238 6.087 -0.592 13.865
395 345 3 0.4238 7.121 0.190 14.647
396 346 2 -0.8476 5.851 15.106 24.479
397 346 3 0.4238 6.448 15.854 24.486
398 346 3 0.4238 6.425 14.340 24.490
399 347 2 -0.8476 3.703 20.146 9.969
400 347 3 0.4238 4.031 19.251 9.880
401 347 3 0.4238 4.457 20.648 10.278
402 348 2 -0.8476 6.480 11.707 15.275
403 348 3 0.4238 6.182 12.616 15.313
404 348 3 0.4238 5.675 11.193 15.206
405 349 2 -0.8476 3.715 11.768 9.821
406 349 3 0.4238 3.042 11.637 10.488
407 349 3 0.4238 3.546 11.086 9.171
408 350 2 -0.8476 2.007 15.958 21.498
409 350 3 0.4238 1.398 15.220 21.530
410 350 3 0.4238 2.873 15.552 21.454
411 351 2 -0.8476 15.766 4.230 22.886
412 351 3 0.4238 16.225 4.065 23.709
413 351 3 0.4238 14.914 3.809 22.998
414 352 2 -0.8476 11.877 12.071 21.572
415 352 3 0.4238 12.642 12.592 21.328
416 352 3 0.4238 12.063 11.197 21.227
417 353 2 -0.8476 18.834 7.318 24.371
418 353 3 0.4238 19.019 8.058 23.794
419 353 3 0.4238 18.040 7.573 24.841
420 354 2 -0.8476 13.269 9.509 15.618
421 354 3 0.4238 12.540 9.889 15.128
422 354 3 0.4238 13.750 10.264 15.958
423 355 2 -0.8476 2.347 5.653 16.495
424 355 3 0.4238 3.282 5.446 16.510
425 355 3 0.4238 1.975 5.134 17.208
426 356 2 -0.8476 11.469 21.290 24.121
427 356 3 0.4238 11.818 21.715 23.338
428 356 3 0.4238 12.195 20.762 24.451
429 357 2 -0.8476 17.671 5.604 15.993
430 357 3 0.4238 17.290 6.181 15.331
431 357 3 0.4238 18.522 5.355 15.633
432 358 2 -0.8476 7.414 0.049 11.251
433 358 3 0.4238 7.847 0.833 11.589
434 358 3 0.4238 7.909 -0.179 10.464
435 359 2 -0.8476 12.095 1.383 11.681
436 359 3 0.4238 11.580 2.063 12.115
437 359 3 0.4238 12.290 0.751 12.372
438 360 2 -0.8476 11.046 7.637 20.663
439 360 3 0.4238 11.881 7.947 21.013
440 360 3 0.4238 10.461 8.392 20.733
441 361 2 -0.8476 18.192 20.845 17.062
442 361 3 0.4238 18.012 20.428 17.904
443 361 3 0.4238 17.979 20.176 16.412
444 362 2 -0.8476 3.706 15.422 18.815
445 362 3 0.4238 3.620 15.018 17.952
446 362 3 0.4238 2.823 15.722 19.029
447 363 2 -0.8476 11.216 12.153 23.992
448 363 3 0.4238 11.032 12.264 24.925
449 363 3 0.4238 10.361 12.230 23.568
450 364 2 -0.8476 0.588 1.014 18.421
451 364 3 0.4238 -0.089 0.337 18.408
452 364 3 0.4238 0.113 1.831 18.264
453 365 2 -0.8476 1.265 9.809 11.046
454 365 3 0.4238 1.405 8.894 10.803
455 365 3 0.4238 1.998 10.278 10.647
456 366 2 -0.8476 1.012 16.764 14.381
457 366 3 0.4238 0.431 17.525 14.410
458 366 3 0.4238 0.437 16.017 14.543
459 367 2 -0.8476 17.264 7.392 18.943
460 367 3 0.4238 16.726 6.633 18.719
461 367 3 0.4238 18.073 7.018 19.292
462 368 2 -0.8476 14.443 1.518 22.065
463 368 3 0.4238 13.761 2.191 22.060
464 368 3 0.4238 13.962 0.691 22.084
465 369 2 -0.8476 16.784 17.191 11.997
466 369 3 0.4238 17.158 17.829 12.604
467 369 3 0.4238 17.517 16.930 11.440
468 370 2 -0.8476 9.832 6.308 17.403
469 370 3 0.4238 10.737 6.541 17.195
470 370 3 0.4238 9.373 7.147 17.451
471 371 2 -0.8476 8.614 9.184 17.497
472 371 3 0.4238 8.850 8.880 16.621
473 371 3 0.4238 9.440 9.182 17.982
474 372 2 -0.8476 5.652 19.479 16.145
475 372 3 0.4238 6.261 19.991 15.615
476 372 3 0.4238 5.985 19.559 17.039
477 373 2 -0.8476 17.990 9.917 11.631
478 373 3 0.4238 17.867 8.968 11.652
479 373 3 0.4238 18.940 10.036 11.644
480 374 2 -0.8476 5.606 19.397 24.671
481 374 3 0.4238 5.156 18.653 25.072
482 374 3 0.4238 6.529 19.141 24.659
483 375 2 -0.8476 14.821 4.320 11.498
484 375 3 0.4238 15.447 4.778 10.938
485 375 3 0.4238 15.223 4.331 12.366
486 376 2 -0.8476 7.341 10.111 12.865
487 376 3 0.4238 7.370 9.437 13.543
488 376 3 0.4238 7.353 10.938 13.348
489 377 2 -0.8476 6.626 8.210 21.553
490 377 3 0.4238 6.755 8.950 20.960
491 377 3 0.4238 6.996 7.461 21.087
492 378 2 -0.8476 7.143 15.442 22.279
493 378 3 0.4238 7.295 16.298 22.679
494 378 3 0.4238 6.227 15.245 22.476
495 379 2 -0.8476 15.205 16.796 20.945
496 379 3 0.4238 14.693 16.838 21.752
497 379 3 0.4238 14.584 16.492 20.283
498 380 2 -0.8476 16.764 12.314 16.949
499 380 3 0.4238 16.919 13.008 16.308
500 380 3 0.4238 16.792 12.760 17.796
501 381 2 -0.8476 17.808 17.473 18.446
502 381 3 0.4238 17.385 18.184 17.965
503 381 3 0.4238 17.163 16.766 18.446
504 382 2 -0.8476 4.708 5.040 17.736
505 382 3 0.4238 3.882 4.861 18.186
506 382 3 0.4238 5.297 4.346 18.030
507 383 2 -0.8476 17.772 3.328 12.761
508 383 3 0.4238 17.931 4.261 12.901
509 383 3 0.4238 18.623 2.977 12.497
510 384 2 -0.8476 9.599 9.018 14.912
511 384 3 0.4238 10.366 9.253 15.434
512 384 3 0.4238 9.877 8.254 14.407
513 385 2 -0.8476 4.514 15.019 14.283
514 385 3 0.4238 3.728 14.570 14.594
515 385 3 0.4238 4.261 15.941 14.234
516 386 2 -0.8476 14.311 9.787 10.264
517 386 3 0.4238 13.763 10.496 10.602
518 386 3 0.4238 15.046 9.741 10.876
519 387 2 -0.8476 8.435 16.211 16.834
520 387 3 0.4238 7.906 15.809 17.523
521 387 3 0.4238 8.726 15.476 16.295
522 388 2 -0.8476 9.635 2.245 18.923
523 388 3 0.4238 10.475 2.410 19.353
524 388 3 0.4238 9.864 1.766 18.126
525 389 2 -0.8476 12.963 13.786 12.294
526 389 3 0.4238 12.475 14.494 11.873
527 389 3 0.4238 13.077 13.131 11.607
528 390 2 -0.8476 14.488 13.801 17.372
529 390 3 0.4238 13.657 13.533 16.978
530 390 3 0.4238 14.726 14.603 16.907
531 391 2 -0.8476 0.211 9.768 23.335
532 391 3 0.4238 0.038 10.116 24.209
533 391 3 0.4238 1.130 9.500 23.360
534 392 2 -0.8476 11.749 3.858 24.516
535 392 3 0.4238 11.154 3.338 25.055
536 392 3 0.4238 12.620 3.517 24.722
537 393 2 -0.8476 2.768 0.105 14.755
538 393 3 0.4238 1.846 0.348 14.671
539 393 3 0.4238 2.766 -0.852 14.758
540 394 2 -0.8476 7.942 8.212 11.191
541 394 3 0.4238 8.148 7.278 11.212
542 394 3 0.4238 6.990 8.250 11.289
543 395 2 -0.8476 11.782 6.398 24.429
544 395 3 0.4238 11.170 5.663 24.434
545 395 3 0.4238 12.381 6.217 25.153
546 396 2 -0.8476 17.753 19.763 20.594
547 396 3 0.4238 17.120 20.479 20.534
548 396 3 0.4238 17.748 19.365 19.723
549 397 2 -0.8476 6.823 17.445 19.949
550 397 3 0.4238 5.895 17.538 20.162
551 397 3 0.4238 6.864 16.670 19.389
552 398 2 -0.8476 4.417 6.588 20.298
553 398 3 0.4238 3.582 6.534 20.762
554 398 3 0.4238 4.243 7.170 19.558
555 399 2 -0.8476 16.150 12.169 10.315
556 399 3 0.4238 15.438 12.808 10.360
557 399 3 0.4238 16.948 12.695 10.367
558 400 2 -0.8476 13.651 2.109 24.555
559 400 3 0.4238 14.601 2.047 24.454
560 400 3 0.4238 13.323 1.256 24.270
561 401 2 -0.8476 11.348 3.168 16.048
562 401 3 0.4238 11.270 2.960 16.979
563 401 3 0.4238 11.292 4.123 16.010
564 402 2 -0.8476 6.202 2.139 23.404
565 402 3 0.4238 6.396 1.422 24.008
566 402 3 0.4238 6.807 2.008 22.674
567 403 2 -0.8476 0.640 13.529 24.543
568 403 3 0.4238 1.027 12.654 24.543
569 403 3 0.4238 -0.077 13.475 25.174
570 404 2 -0.8476 2.510 5.785 13.222
571 404 3 0.4238 2.045 6.206 13.945
572 404 3 0.4238 2.177 4.887 13.213
573 405 2 -0.8476 16.218 0.037 23.350
574 405 3 0.4238 16.687 0.818 23.645
575 405 3 0.4238 16.076 -0.473 24.147
576 406 2 -0.8476 9.448 8.921 24.127
577 406 3 0.4238 9.064 9.636 23.619
578 406 3 0.4238 10.240 9.297 24.510
579 407 2 -0.8476 6.766 14.411 10.441
580 407 3 0.4238 7.561 14.943 10.468
581 407 3 0.4238 6.051 15.047 10.445
582 408 2 -0.8476 7.496 17.623 11.932
583 408 3 0.4238 7.583 18.554 12.136
584 408 3 0.4238 7.128 17.604 11.049
585 409 2 -0.8476 18.722 13.806 14.713
586 409 3 0.4238 18.582 14.164 15.589
587 409 3 0.4238 19.525 13.291 14.789
588 410 2 -0.8476 18.290 21.321 11.833
589 410 3 0.4238 18.205 22.238 11.572
590 410 3 0.4238 19.196 21.095 11.622
591 411 2 -0.8476 4.579 4.165 22.933
592 411 3 0.4238 4.363 3.945 22.026
593 411 3 0.4238 3.753 4.471 23.308
594 412 2 -0.8476 4.754 13.236 12.222
595 412 3 0.4238 4.083 13.889 12.422
596 412 3 0.4238 5.555 13.745 12.099
597 413 2 -0.8476 5.043 6.699 23.882
598 413 3 0.4238 5.543 5.954 24.214
599 413 3 0.4238 4.138 6.514 24.135
600 414 2 -0.8476 10.583 4.253 20.814
601 414 3 0.4238 9.674 4.335 20.525
602 414 3 0.4238 10.588 4.625 21.696
603 415 2 -0.8476 4.340 9.258 20.510
604 415 3 0.4238 4.902 9.895 20.952
605 415 3 0.4238 4.918 8.823 19.883
606 416 2 -0.8476 15.465 7.930 24.747
607 416 3 0.4238 16.067 8.222 24.062
608 416 3 0.4238 15.706 7.017 24.905
609 417 2 -0.8476 16.215 14.724 13.044
610 417 3 0.4238 16.168 15.374 13.745
611 417 3 0.4238 17.094 14.353 13.119
612 418 2 -0.8476 14.734 19.819 17.679
613 418 3 0.4238 15.028 18.908 17.678
614 418 3 0.4238 15.542 20.332 17.679
615 419 2 -0.8476 4.599 8.423 14.763
616 419 3 0.4238 4.951 9.297 14.592
617 419 3 0.4238 5.020 8.150 15.578
618 420 2 -0.8476 17.275 1.752 19.575
619 420 3 0.4238 17.084 0.960 20.078
620 420 3 0.4238 18.087 1.551 19.110
621 421 2 -0.8476 0.657 7.932 17.102
622 421 3 0.4238 -0.176 8.314 16.825
623 421 3 0.4238 1.322 8.498 16.710
624 422 2 -0.8476 8.945 13.491 14.855
625 422 3 0.4238 8.775 12.935 15.615
626 422 3 0.4238 9.431 14.237 15.208
627 423 2 -0.8476 16.264 14.437 19.884
628 423 3 0.4238 16.976 14.900 20.326
629 423 3 0.4238 15.595 14.324 20.560
630 424 2 -0.8476 11.057 19.937 20.287
631 424 3 0.4238 11.265 20.871 20.329
632 424 3 0.4238 11.899 19.499 20.407
633 425 2 -0.8476 12.078 19.681 15.424
634 425 3 0.4238 11.186 19.924 15.176
635 425 3 0.4238 12.567 19.686 14.601
636 426 2 -0.8476 17.594 18.779 23.061
637 426 3 0.4238 17.919 19.160 22.245
638 426 3 0.4238 18.114 17.984 23.178
639 427 2 -0.8476 7.963 4.852 23.389
640 427 3 0.4238 8.120 3.947 23.657
641 427 3 0.4238 8.823 5.176 23.122
642 428 2 -0.8476 6.479 4.500 19.476
643 428 3 0.4238 6.354 3.731 20.031
644 428 3 0.4238 7.031 5.085 19.997
645 429 2 -0.8476 11.950 16.572 10.568
646 429 3 0.4238 11.839 15.625 10.652
647 429 3 0.4238 11.060 16.911 10.474
648 430 2 -0.8476 15.784 10.051 21.099
649 430 3 0.4238 15.701 10.561 20.293
650 430 3 0.4238 15.316 9.236 20.916
651 431 2 -0.8476 16.849 14.212 22.823
652 431 3 0.4238 17.212 14.842 23.446
653 431 3 0.4238 17.615 13.836 22.389
654 432 2 -0.8476 13.812 0.968 16.530
655 432 3 0.4238 14.060 1.605 15.860
656 432 3 0.4238 12.995 1.310 16.894
657 433 2 -0.8476 3.423 19.845 19.640
658 433 3 0.4238 3.344 20.072 20.566
659 433 3 0.4238 4.364 19.872 19.466
660 434 2 -0.8476 5.835 5.460 15.435
661 434 3 0.4238 6.597 5.461 14.855
662 434 3 0.4238 5.168 4.971 14.955
663 435 2 -0.8476 1.671 8.521 21.062
664 435 3 0.4238 1.714 7.566 21.107
665 435 3 0.4238 2.586 8.800 21.027
666 436 2 -0.8476 11.286 3.581 12.691
667 436 3 0.4238 11.605 4.178 12.015
668 436 3 0.4238 11.862 3.736 13.440
669 437 2 -0.8476 10.314 17.116 24.869
670 437 3 0.4238 9.443 17.486 25.009
671 437 3 0.4238 10.840 17.851 24.555
672 438 2 -0.8476 8.703 0.298 21.286
673 438 3 0.4238 8.359 -0.595 21.253
674 438 3 0.4238 7.960 0.832 21.563
675 439 2 -0.8476 10.124 15.777 20.718
676 439 3 0.4238 10.493 14.901 20.603
677 439 3 0.4238 10.886 16.344 20.839
678 440 2 -0.8476 7.377 12.545 12.090
679 440 3 0.4238 7.891 11.834 11.709
680 440 3 0.4238 7.677 12.599 12.997
681 441 2 -0.8476 14.880 1.766 9.963
682 441 3 0.4238 14.165 1.176 10.201
683 441 3 0.4238 15.466 1.751 10.720
684 442 2 -0.8476 1.522 5.764 24.970
685 442 3 0.4238 2.023 6.101 25.713
686 442 3 0.4238 2.005 6.062 24.200
687 443 2 -0.8476 0.651 0.821 23.018
688 443 3 0.4238 -0.151 1.265 22.742
689 443 3 0.4238 0.422 0.410 23.852
690 444 2 -0.8476 16.938 10.524 24.363
691 444 3 0.4238 17.777 10.910 24.617
692 444 3 0.4238 16.467 11.238 23.932
693 445 2 -0.8476 3.187 2.751 9.812
694 445 3 0.4238 3.981 3.285 9.796
695 445 3 0.4238 3.406 1.979 9.290
696 446 2 -0.8476 11.328 13.554 17.250
697 446 3 0.4238 10.463 13.154 17.160
698 446 3 0.4238 11.532 13.480 18.182
699 447 2 -0.8476 12.414 16.652 14.863
700 447 3 0.4238 11.721 16.196 15.341
701 447 3 0.4238 11.961 17.356 14.399
702 448 2 -0.8476 2.196 11.184 22.683
703 448 3 0.4238 2.882 11.586 23.217
704 448 3 0.4238 2.162 11.722 21.892
705 449 2 -0.8476 12.843 9.550 23.057
706 449 3 0.4238 12.821 9.069 23.884
707 449 3 0.4238 12.486 8.937 22.414
708 450 2 -0.8476 18.096 18.844 14.718
709 450 3 0.4238 18.982 19.205 14.721
710 450 3 0.4238 17.797 18.948 13.815
711 451 2 -0.8476 3.328 1.606 17.153
712 451 3 0.4238 4.010 1.068 16.751
713 451 3 0.4238 2.518 1.119 17.003
714 452 2 -0.8476 11.920 5.010 18.795
715 452 3 0.4238 12.804 5.233 18.502
716 452 3 0.4238 11.539 5.846 19.065
717 453 2 -0.8476 9.265 18.793 14.904
718 453 3 0.4238 10.029 18.637 14.349
719 453 3 0.4238 9.504 19.552 15.435
720 454 2 -0.8476 1.288 2.881 13.753
721 454 3 0.4238 1.449 2.343 12.977
722 454 3 0.4238 0.664 2.373 14.272
723 455 2 -0.8476 14.104 18.065 23.512
724 455 3 0.4238 14.355 17.153 23.657
725 455 3 0.4238 14.866 18.459 23.087
726 456 2 -0.8476 17.777 4.152 21.031
727 456 3 0.4238 17.883 3.313 21.480
728 456 3 0.4238 16.910 4.102 20.628
729 457 2 -0.8476 0.688 8.820 13.743
730 457 3 0.4238 0.177 8.014 13.816
731 457 3 0.4238 0.037 9.503 13.581
732 458 2 -0.8476 0.278 13.853 18.296
733 458 3 0.4238 -0.320 13.200 17.932
734 458 3 0.4238 0.420 14.473 17.581
735 459 2 -0.8476 10.144 0.877 15.031
736 459 3 0.4238 9.342 0.526 15.417
737 459 3 0.4238 10.321 1.675 15.529
738 460 2 -0.8476 14.219 0.103 12.528
739 460 3 0.4238 15.141 -0.154 12.494
740 460 3 0.4238 13.739 -0.724 12.519
741 461 2 -0.8476 14.925 11.856 14.660
742 461 3 0.4238 15.697 11.541 15.129
743 461 3 0.4238 14.953 12.807 14.763
744 462 2 -0.8476 8.184 5.767 12.685
745 462 3 0.4238 9.103 5.503 12.739
746 462 3 0.4238 7.715 4.959 12.474
747 463 2 -0.8476 0.470 13.190 12.761
748 463 3 0.4238 0.586 12.265 12.542
749 463 3 0.4238 -0.460 13.270 12.975
750 464 2 -0.8476 2.920 2.932 19.486
751 464 3 0.4238 2.276 3.638 19.425
752 464 3 0.4238 2.648 2.425 20.251
753 465 2 -0.8476 8.369 10.900 19.734
754 465 3 0.4238 9.191 10.434 19.885
755 465 3 0.4238 7.711 10.209 19.658
756 466 2 -0.8476 8.424 13.393 23.063
757 466 3 0.4238 7.909 13.598 23.844
758 466 3 0.4238 7.811 13.503 22.336
759 467 2 -0.8476 9.581 13.960 10.854
760 467 3 0.4238 9.718 13.732 11.773
761 467 3 0.4238 10.281 14.582 10.654
762 468 2 -0.8476 1.033 10.840 19.653
763 468 3 0.4238 0.835 10.068 19.122
764 468 3 0.4238 0.181 11.132 19.978
765 469 2 -0.8476 9.680 18.160 19.115
766 469 3 0.4238 8.868 17.668 19.234
767 469 3 0.4238 9.395 19.059 18.953
768 470 2 -0.8476 5.733 11.216 22.675
769 470 3 0.4238 5.609 10.528 23.329
770 470 3 0.4238 6.632 11.515 22.808
771 471 2 -0.8476 2.472 3.400 24.948
772 471 3 0.4238 1.596 3.781 24.899
773 471 3 0.4238 2.438 2.643 24.364
774 472 2 -0.8476 6.790 2.547 10.977
775 472 3 0.4238 5.848 2.379 10.988
776 472 3 0.4238 6.874 3.461 11.249
777 473 2 -0.8476 3.485 20.811 23.437
778 473 3 0.4238 4.432 20.951 23.448
779 473 3 0.4238 3.113 21.690 23.359
780 474 2 -0.8476 2.064 18.072 17.421
781 474 3 0.4238 1.911 17.558 18.214
782 474 3 0.4238 1.193 18.201 17.046
783 475 2 -0.8476 7.039 0.916 17.946
784 475 3 0.4238 7.127 -0.037 17.967
785 475 3 0.4238 6.540 1.093 17.148
786 476 2 -0.8476 10.364 2.150 22.199
787 476 3 0.4238 10.167 1.335 21.737
788 476 3 0.4238 9.851 2.099 23.005
789 477 2 -0.8476 4.822 19.855 13.030
790 477 3 0.4238 4.276 20.281 12.369
791 477 3 0.4238 5.308 19.188 12.546
792 478 2 -0.8476 14.844 6.812 20.695
793 478 3 0.4238 15.531 7.458 20.855
794 478 3 0.4238 14.028 7.309 20.758
795 479 2 -0.8476 6.210 21.034 22.674
796 479 3 0.4238 5.837 21.192 21.807
797 479 3 0.4238 6.371 20.090 22.697
798 480 2 -0.8476 17.710 10.206 15.579
799 480 3 0.4238 17.385 9.328 15.780
800 480 3 0.4238 18.655 10.094 15.473
801 481 2 -0.8476 7.248 10.866 24.635
802 481 3 0.4238 7.382 11.165 25.534
803 481 3 0.4238 7.700 10.024 24.592
804 482 2 -0.8476 17.192 3.854 9.992
805 482 3 0.4238 17.005 3.831 9.054
806 482 3 0.4238 16.416 3.469 10.401
807 483 2 -0.8476 14.931 17.522 14.956
808 483 3 0.4238 15.491 16.788 14.705
809 483 3 0.4238 15.468 18.041 15.555
810 484 2 -0.8476 11.593 12.849 14.581
811 484 3 0.4238 11.494 11.975 14.205
812 484 3 0.4238 12.024 13.358 13.894
813 485 2 -0.8476 15.303 14.757 10.539
814 485 3 0.4238 14.617 15.391 10.331
815 485 3 0.4238 16.030 15.289 10.863
816 486 2 -0.8476 6.119 13.657 17.821
817 486 3 0.4238 5.237 13.569 18.183
818 486 3 0.4238 6.111 13.113 17.033
819 487 2 -0.8476 18.538 18.750 10.690
820 487 3 0.4238 17.605 18.742 10.902
821 487 3 0.4238 18.607 19.333 9.934
822 488 2 -0.8476 11.633 7.026 11.776
823 488 3 0.4238 10.752 7.078 12.146
824 488 3 0.4238 11.494 6.972 10.830
825 489 2 -0.8476 4.348 17.628 23.268
826 489 3 0.4238 4.438 16.946 23.933
827 489 3 0.4238 5.238 17.956 23.137
828 490 2 -0.8476 5.172 0.567 20.697
829 490 3 0.4238 4.224 0.700 20.683
830 490 3 0.4238 5.323 -0.152 20.084
831 491 2 -0.8476 9.875 19.466 12.570
832 491 3 0.4238 10.507 19.756 13.228
833 491 3 0.4238 9.341 20.240 12.394