LAMMPS data file via write_data, version 29 Aug 2024, timestep = 1000000, units = real

1024 atoms
5 atom types

0 19.76 xlo xhi
0 21.39 ylo yhi
0 34.85 zlo zhi

Masses

1 12.011
2 15.9994
3 1.008
4 22.9898
5 35.453

Atoms # full

1 1 1 0 0.618 0.356 7.5 0 0 0
2 2 1 0 1.853 3.922 7.5 0 0 0
3 3 1 0 1.853 2.495 7.5 0 0 0
4 4 1 0 0.618 1.782 7.5 0 0 0
9 9 1 0 0.618 4.634 7.5 0 0 0
11 11 1 0 1.853 6.774 7.5 0 0 0
12 12 1 0 0.618 6.06 7.5 0 0 0
41 41 1 0 3.088 0.356 7.5 0 0 0
42 42 1 0 4.322 3.922 7.5 0 0 0
43 43 1 0 4.322 2.495 7.5 0 0 0
44 44 1 0 3.088 1.782 7.5 0 0 0
49 49 1 0 3.088 4.634 7.5 0 0 0
51 51 1 0 4.322 6.774 7.5 0 0 0
52 52 1 0 3.088 6.06 7.5 0 0 0
81 81 1 0 5.558 0.356 7.5 0 0 0
82 82 1 0 6.793 3.922 7.5 0 0 0
83 83 1 0 6.793 2.495 7.5 0 0 0
84 84 1 0 5.558 1.782 7.5 0 0 0
89 89 1 0 5.558 4.634 7.5 0 0 0
91 91 1 0 6.793 6.774 7.5 0 0 0
92 92 1 0 5.558 6.06 7.5 0 0 0
121 121 1 0 8.027 0.356 7.5 0 0 0
122 122 1 0 9.262 3.922 7.5 0 0 0
123 123 1 0 9.262 2.495 7.5 0 0 0
124 124 1 0 8.027 1.782 7.5 0 0 0
129 129 1 0 8.027 4.634 7.5 0 0 0
131 131 1 0 9.262 6.774 7.5 0 0 0
132 132 1 0 8.027 6.06 7.5 0 0 0
713 451 3 0.4238 3.9781089545466672 4.7225726225629305 14.04741443271853 -5 1 0
433 358 3 0.4238 5.0241579467581845 0.7582128866501183 11.95871793191632 -5 0 0
771 471 2 -0.8476 1.5553794795010099 4.08812673141958 15.09065312956457 -4 1 0
432 358 2 -0.8476 5.270961034056981 1.1302755547775418 12.853512633857457 -5 0 0
960 534 2 -0.8476 5.329876054103182 7.034386333247454 10.69111328066656 -5 2 0
1024 560 5 -1 3.9406355423309396 6.466373987451546 15.403262383430608 -5 2 0
962 534 3 0.4238 5.00550157031883 6.100146151871594 10.839360616119608 -5 2 0
964 535 3 0.4238 1.4307855077972742 0.8021463836677154 14.292328747991087 -5 3 0
879 507 2 -0.8476 2.7996087683125594 2.0005674261220117 11.1879566528039 -3 2 0
881 507 3 0.4238 3.194376057336402 2.443982640426406 11.99265665892391 -3 2 0
773 471 3 0.4238 2.2857351163223547 4.692108947916842 15.409693315974286 -4 1 0
712 451 3 0.4238 5.132442867581094 3.5675397399329154 14.041192556538437 -5 1 0
541 394 3 0.4238 3.196869898995887 5.127690522276127 10.645012918766554 -6 1 0
434 358 3 0.4238 6.20214220904903 1.4931276466000076 12.81829909633151 -5 0 0
981 541 2 -0.8476 8.776133588335348 2.9560946825385055 10.47358541480558 -6 0 0
681 441 2 -0.8476 0.9217817540354591 6.3546116225283615 12.808492068764247 -5 0 0
799 480 3 0.4238 8.019345850657032 2.4970506842895803 12.034104309938101 -3 1 0
954 532 2 -0.8476 2.986878271067164 1.544439577359081 14.661139006786897 -4 2 0
542 394 3 0.4238 1.7367505836908108 4.412028094529233 10.49499453757285 -6 1 0
955 532 3 0.4238 3.9353642839477234 1.6181329368312143 14.353009948568296 -4 2 0
376 339 3 0.4238 7.135617724232044 2.7991573277573707 14.62118428537169 -4 0 0
880 507 3 0.4238 3.532305897637415 1.617981489506929 10.625121668861489 -3 2 0
766 469 3 0.4238 1.1622965159267928 2.5069611803480827 10.783750161384125 -4 1 0
800 480 3 0.4238 8.397810118550247 1.2553359497988423 13.024829603070096 -3 1 0
982 541 3 0.4238 8.491025337800044 3.719635972082364 9.894173593410843 -6 0 0
780 474 2 -0.8476 7.599988257118347 5.561536569345506 10.823036764404652 -6 -1 0
772 471 3 0.4238 0.8298168746517933 4.634581885286081 14.672388214986345 -4 1 0
983 541 3 0.4238 9.736786979822272 3.070374130999482 10.726738034973872 -6 0 0
986 542 3 0.4238 8.637031154463681 6.176102007857316 14.059694425577653 -4 1 0
781 474 3 0.4238 6.826312198427296 6.157831034188765 10.60889165395506 -6 -1 0
984 542 2 -0.8476 8.08483082561362 6.786680134672799 14.62738246733648 -4 1 0
375 339 2 -0.8476 6.335557190001565 3.087900207433543 15.147046512679017 -4 0 0
798 480 2 -0.8476 7.7170785206070835 1.9589093755329838 12.820895058958705 -3 1 0
711 451 2 -0.8476 4.334762135939786 3.9272999269098525 13.557169751500513 -5 1 0
765 469 2 -0.8476 0.4003588123893701 3.152606548918691 10.732830792440241 -4 1 0
682 441 3 0.4238 1.4936876856694643 5.753879305949386 12.249882793459404 -5 0 0
540 394 2 -0.8476 2.2097631362738444 5.284891393363688 10.614868171616752 -6 1 0
453 365 2 -0.8476 5.052124190668336 1.164974311553515 17.178495182788943 -5 2 0
760 467 3 0.4238 4.8054533182795085 4.095038077949925 11.906931957120692 -3 2 0
1020 556 4 1 6.655911779982034 5.50166709388206 16.49330647394699 -4 1 0
956 532 3 0.4238 2.586935391444209 2.4583632523295185 14.730341080525527 -4 2 0
377 339 3 0.4238 6.1662364270261145 2.4325305764855925 15.883131722033172 -4 0 0
1018 554 4 1 2.6492042073456235 0.49316441556257695 16.904243980105182 -6 2 0
782 474 3 0.4238 8.307216072943346 6.089165707001573 11.293606969860063 -6 -1 0
963 535 2 -0.8476 0.6630559443927752 0.16330092740856525 14.242651617170084 -5 3 0
761 467 3 0.4238 5.8776252849060615 4.284144607812939 10.689840341370834 -3 2 0
759 467 2 -0.8476 4.909384606966659 4.317714604733039 10.937595354952888 -3 2 0
947 529 3 0.4238 2.1130206407904435 6.979009967382646 16.293982656481724 -6 1 0
808 483 3 0.4238 6.366988656320504 5.192783634819225 23.269330425042998 -4 3 0
877 506 3 0.4238 8.930831833215398 3.0460466824266907 20.794110743861392 -5 3 0
878 506 3 0.4238 7.4172407027286145 2.983323032622626 20.184411420928935 -5 3 0
795 479 2 -0.8476 1.9613128162647533 2.5849571028421625 20.744252169853684 -4 1 0
547 396 3 0.4238 0.5810851763528639 4.7558111127370815 19.761011453717632 -4 1 0
591 411 2 -0.8476 5.664978045470572 2.6452516217502695 20.67183711936881 -4 1 0
1009 550 3 0.4238 5.049431046986482 0.5583287095415997 23.60453570308467 -6 2 0
428 356 3 0.4238 8.080331184894682 6.885486678357213 20.79767950034759 -3 2 0
491 377 3 0.4238 1.3948454034719826 6.188274439850089 18.30190068936994 -5 1 0
361 334 3 0.4238 9.460352045444022 5.328821623709278 17.62738784074812 -4 1 0
479 373 3 0.4238 3.270053707879564 1.3057621170312046 24.885025843729757 -4 2 0
587 409 3 0.4238 1.832945294838022 2.763520053967161 18.809812655792037 -5 2 0
1010 550 3 0.4238 6.5783545364072324 0.38587656722840846 24.15160008277018 -6 2 0
478 373 3 0.4238 2.6158558687008022 0.7680689400110532 23.488767454579527 -4 2 0
362 334 3 0.4238 8.560300999446229 4.268356639552175 18.482928170744458 -4 1 0
585 409 2 -0.8476 2.251623340060256 2.7549153483528066 17.90171833316521 -5 2 0
939 527 2 -0.8476 4.741161956268845 6.271034099713386 19.490052547620195 -5 0 0
605 415 3 0.4238 4.639764345987725 4.411655623185914 18.284886156782107 -4 2 0
915 519 2 -0.8476 9.867191490518247 7.058819801009371 20.970494550083316 -7 1 0
791 477 3 0.4238 1.5965026164565077 5.871809025447018 24.020174713652903 -4 1 0
332 324 3 0.4238 4.104431946951419 5.204886837773681 21.516084956977473 -4 0 0
483 375 2 -0.8476 8.346941112436348 2.940840152136067 22.87741520130575 -4 0 0
383 341 3 0.4238 9.778509687609633 2.3822971662390184 18.386188734858614 -5 1 0
796 479 3 0.4238 2.529025315056976 3.3232550011354696 21.108420546692514 -4 1 0
1008 550 2 -0.8476 5.664472155681544 0.7246747952213112 24.37528426365727 -6 2 0
807 483 2 -0.8476 6.319177378463519 6.1836674297126635 23.14337908976999 -4 3 0
882 508 2 -0.8476 1.7958139904192163 3.998509854457581 24.068324068097212 -4 2 0
789 477 2 -0.8476 1.7513723352451078 6.859436576932521 24.044812712701216 -4 1 0
603 415 2 -0.8476 5.332253482918675 3.724776877041967 18.06430273234643 -4 2 0
883 508 3 0.4238 2.2287537633353307 3.1387112371776182 24.33908105550114 -4 2 0
686 442 3 0.4238 5.90020940210649 2.446789174155565 24.307978279961596 -5 1 0
484 375 3 0.4238 7.500582901853433 3.2681614965210954 23.297579662615025 -4 0 0
876 506 2 -0.8476 8.388239818353671 3.0475472142713724 19.954116046497337 -5 3 0
884 508 3 0.4238 0.8055143888666506 3.8705031458760306 24.014279290892166 -4 2 0
685 442 3 0.4238 5.852940053615454 3.7628176074592337 25.27361856597437 -5 1 0
386 342 3 0.4238 8.851257698742154 6.8460066266160835 24.795000785434503 -5 2 0
427 356 3 0.4238 6.7549175785241 7.005886969356485 21.743939868927367 -3 2 0
684 442 2 -0.8476 6.060116347711465 3.4329113424473885 24.35261924778489 -5 1 0
455 365 3 0.4238 5.677687346603329 0.6501135485749622 17.7646602755217 -5 2 0
593 411 3 0.4238 4.929878207110547 3.164549961195604 21.10767804773786 -4 1 0
708 450 2 -0.8476 0.2449519607139657 0.22011794915829616 17.620133328643075 -5 2 0
489 377 2 -0.8476 1.7803423794674291 5.510787678548528 18.928322653176558 -5 1 0
477 373 2 -0.8476 2.597466736048642 1.4992147995265037 24.17074098934234 -4 2 0
485 375 3 0.4238 8.281894501798671 1.955316802732908 22.720850325849984 -4 0 0
330 324 2 -0.8476 3.6262629868057124 4.37141430600664 21.792993472849574 -4 0 0
797 479 3 0.4238 2.500728386110705 1.7445480076830364 20.69187571815319 -4 1 0
592 411 3 0.4238 5.535879522955721 1.670001174903113 20.851335065737985 -4 1 0
941 527 3 0.4238 5.718441854857385 6.378612767720574 19.672675966758373 -5 0 0
360 334 2 -0.8476 8.67119425662753 4.7154664891619085 17.595349394727993 -4 1 0
604 415 3 0.4238 5.8319968623713025 3.4768241182239117 18.894228533884732 -4 2 0
331 324 3 0.4238 3.039341056686019 4.569078985624606 22.578137942350047 -4 0 0
527 389 3 0.4238 8.86122441567473 0.32754678655695874 24.15835775006646 -4 2 0
653 431 3 0.4238 0.9195717172459925 0.41760703379001535 24.18056866851452 -5 0 0
490 377 3 0.4238 2.6962592704864883 5.798618167900476 19.208055480144424 -5 1 0
809 483 3 0.4238 5.409967981427617 6.509172538353358 23.402964922595604 -4 3 0
586 409 3 0.4238 2.1549502329341514 3.6571979233190683 17.48155088785114 -5 2 0
548 396 3 0.4238 0.09866362336998147 3.4889548745134844 20.67148917011886 -4 1 0
790 477 3 0.4238 2.4316893842142218 7.1074501310162015 23.35513307171488 -4 1 0
518 386 3 0.4238 0.05514173254138017 6.518520250598472 20.728780296202626 -5 1 0
651 431 2 -0.8476 0.1637516739850769 0.034149204612886876 23.649817893569562 -5 0 0
454 365 3 0.4238 4.843091941269024 2.04466956120001 17.605628414607256 -5 2 0
525 389 2 -0.8476 8.080545164837801 0.2326165413799756 23.540678063644595 -4 2 0
426 356 2 -0.8476 7.109796761216132 7.125694351131988 20.81673610513941 -3 2 0
5 5 1 0 0.618 0.356 27.35 0 0 0
6 6 1 0 1.853 3.922 27.35 0 0 0
7 7 1 0 1.853 2.495 27.35 0 0 0
8 8 1 0 0.618 1.782 27.35 0 0 0
13 13 1 0 0.618 4.634 27.35 0 0 0
15 15 1 0 1.853 6.774 27.35 0 0 0
16 16 1 0 0.618 6.06 27.35 0 0 0
45 45 1 0 3.088 0.356 27.35 0 0 0
46 46 1 0 4.322 3.922 27.35 0 0 0
47 47 1 0 4.322 2.495 27.35 0 0 0
48 48 1 0 3.088 1.782 27.35 0 0 0
53 53 1 0 3.088 4.634 27.35 0 0 0
55 55 1 0 4.322 6.774 27.35 0 0 0
56 56 1 0 3.088 6.06 27.35 0 0 0
85 85 1 0 5.558 0.356 27.35 0 0 0
86 86 1 0 6.793 3.922 27.35 0 0 0
87 87 1 0 6.793 2.495 27.35 0 0 0
88 88 1 0 5.558 1.782 27.35 0 0 0
93 93 1 0 5.558 4.634 27.35 0 0 0
95 95 1 0 6.793 6.774 27.35 0 0 0
96 96 1 0 5.558 6.06 27.35 0 0 0
125 125 1 0 8.027 0.356 27.35 0 0 0
126 126 1 0 9.262 3.922 27.35 0 0 0
127 127 1 0 9.262 2.495 27.35 0 0 0
128 128 1 0 8.027 1.782 27.35 0 0 0
133 133 1 0 8.027 4.634 27.35 0 0 0
135 135 1 0 9.262 6.774 27.35 0 0 0
136 136 1 0 8.027 6.06 27.35 0 0 0
10 10 1 0 1.853 8.2 7.5 0 0 0
17 17 1 0 0.618 8.912 7.5 0 0 0
18 18 1 0 1.853 12.477 7.5 0 0 0
19 19 1 0 1.853 11.051 7.5 0 0 0
20 20 1 0 0.618 10.338 7.5 0 0 0
25 25 1 0 0.618 13.191 7.5 0 0 0
50 50 1 0 4.322 8.2 7.5 0 0 0
57 57 1 0 3.088 8.912 7.5 0 0 0
58 58 1 0 4.322 12.477 7.5 0 0 0
59 59 1 0 4.322 11.051 7.5 0 0 0
60 60 1 0 3.088 10.338 7.5 0 0 0
65 65 1 0 3.088 13.191 7.5 0 0 0
90 90 1 0 6.793 8.2 7.5 0 0 0
97 97 1 0 5.558 8.912 7.5 0 0 0
98 98 1 0 6.793 12.477 7.5 0 0 0
99 99 1 0 6.793 11.051 7.5 0 0 0
100 100 1 0 5.558 10.338 7.5 0 0 0
105 105 1 0 5.558 13.191 7.5 0 0 0
130 130 1 0 9.262 8.2 7.5 0 0 0
137 137 1 0 8.027 8.912 7.5 0 0 0
138 138 1 0 9.262 12.477 7.5 0 0 0
139 139 1 0 9.262 11.051 7.5 0 0 0
140 140 1 0 8.027 10.338 7.5 0 0 0
145 145 1 0 8.027 13.191 7.5 0 0 0
565 402 3 0.4238 5.349907323052292 7.846658726210198 13.651731099341092 -4 1 0
922 521 3 0.4238 3.925508803876396 11.478435844511148 14.510514900325232 -4 0 0
366 336 2 -0.8476 6.355752902229343 11.37186339774564 10.396748341508914 -5 1 0
628 423 3 0.4238 9.450450466879358 10.32873698058483 11.528064513346656 -4 1 0
402 348 2 -0.8476 4.059374169487926 12.239692008109667 15.96534006285827 -5 1 0
776 472 3 0.4238 6.570084701786913 11.89316575785819 13.001503447952242 -5 0 0
762 468 2 -0.8476 8.096731800273954 9.617792914262692 16.898288451736455 -5 1 0
566 402 3 0.4238 5.879415529888129 7.791853831919535 12.107955375981545 -4 1 0
539 393 3 0.4238 3.9886278890361093 13.242267755710733 11.037351623518846 -4 -1 0
607 416 3 0.4238 9.452662559931689 7.975167416947609 15.533989597285778 -4 1 0
775 472 3 0.4238 6.305070237082411 13.117782409393495 11.954265217136868 -5 0 0
923 521 3 0.4238 3.352616465102206 11.580215362180276 12.984716174733812 -4 0 0
946 529 3 0.4238 1.2521913055221783 8.319490748944245 16.652744807418596 -6 1 0
921 521 2 -0.8476 3.567512330533135 10.95652960868058 13.736271767151106 -4 0 0
990 544 2 -0.8476 9.517251509460529 7.469382994728267 11.685331823582834 -4 0 0
358 333 3 0.4238 3.0642574197861707 8.73610016497314 11.695441094662483 -3 0 0
654 432 2 -0.8476 0.08652745934328944 11.087812625741673 14.440857637131957 -5 1 0
774 472 2 -0.8476 6.291499418470035 12.849907439629858 12.917623500419559 -5 0 0
357 333 2 -0.8476 3.275490716756416 8.911823655897507 10.73393031333466 -3 0 0
380 340 3 0.4238 7.122036412559793 12.961946806457707 14.680914410983315 -5 1 0
568 403 3 0.4238 6.855106846770394 9.804482262327502 13.90448600465876 -5 0 0
629 423 3 0.4238 8.166751704732212 10.58786053849597 12.50356410061408 -4 1 0
507 383 2 -0.8476 2.5056195092347027 8.45935239072292 13.213464488438891 -4 0 0
508 383 3 0.4238 2.8339948467654477 9.388661404141345 13.382444913384154 -4 0 0
367 336 3 0.4238 7.214076315915629 11.2756756273152 10.900761073210939 -5 1 0
403 348 3 0.4238 4.107239818578398 13.236698703150877 15.904622017221694 -5 1 0
764 468 3 0.4238 8.158652433827712 10.529677402827456 17.304037837704882 -5 1 0
368 336 3 0.4238 6.495363504699263 11.097491998691467 9.445313042140242 -5 1 0
945 529 2 -0.8476 1.2157698430349975 7.323582022593055 16.570046232207073 -6 1 0
351 331 2 -0.8476 1.1923240532005386 10.90655891894729 11.490897274429214 -4 1 0
564 402 2 -0.8476 6.081570977958956 8.124285015636847 13.029162539161641 -4 1 0
569 403 3 0.4238 7.638981951949576 10.300962873067665 15.248239355899374 -5 0 0
545 395 3 0.4238 2.7574571823098415 10.4382058055705 16.260328520119216 -4 -1 0
581 407 3 0.4238 4.204555447218759 8.350753727712654 16.66608771473855 -6 0 0
445 362 3 0.4238 9.194496342681798 12.940154741751675 11.417755833419758 -5 2 0
359 333 3 0.4238 2.7602155024364023 9.70920376024583 10.419802253382867 -3 0 0
538 393 3 0.4238 4.428711176099666 11.670783756538041 10.979116480124995 -4 -1 0
961 534 3 0.4238 4.565032151773969 7.61119451739507 10.40422032213127 -5 2 0
683 441 3 0.4238 1.4237984941047674 7.19412701997323 13.016321650567336 -5 0 0
446 362 3 0.4238 8.03365793441332 13.817598153423576 10.676693246091288 -5 2 0
567 403 2 -0.8476 7.439397311086878 10.517244977066563 14.292525522443283 -5 0 0
470 370 3 0.4238 7.979881184028639 12.379837040197668 16.799428101084484 -6 1 0
378 340 2 -0.8476 7.773706316285399 13.353152062341524 15.330749147480198 -5 1 0
537 393 2 -0.8476 3.6671562136576448 12.300238305565797 11.133460884036696 -4 -1 0
543 395 2 -0.8476 1.8721244611262609 9.97374489119376 16.238834156115278 -4 -1 0
352 331 3 0.4238 0.8784778354624512 10.87268878076793 12.439766632894266 -4 1 0
763 468 3 0.4238 9.016000230552178 9.242050418902968 16.780971949153294 -5 1 0
509 383 3 0.4238 2.9550204392805366 7.827125249131912 13.844596530278235 -4 0 0
544 395 3 0.4238 1.3922685908518158 10.209891766530625 15.393864952416127 -4 -1 0
404 348 3 0.4238 4.431305598118696 11.941048230458463 16.84424837811345 -5 1 0
874 505 3 0.4238 9.346832205097195 13.163492668939346 14.613469586540493 -5 2 0
627 423 2 -0.8476 8.634941933784955 10.889076551517826 11.672861169924058 -4 1 0
905 515 3 0.4238 0.21278487347770128 12.766783616020874 10.629517255116209 -3 1 0
444 362 2 -0.8476 9.019901872406654 13.705186077509904 10.797881506340621 -5 2 0
353 331 3 0.4238 1.939048854359429 11.566775232292864 11.410174987483849 -4 1 0
985 542 3 0.4238 7.439937658394155 7.286727088828393 14.049397340820029 -4 1 0
430 357 3 0.4238 0.6636405777449896 10.615171585206944 17.258251915634364 -3 1 0
379 340 3 0.4238 7.386201537309776 14.182687938723445 15.732881618709357 -5 1 0
719 453 3 0.4238 5.293887611907749 14.154487110860382 13.679012456885294 -3 -2 0
733 458 3 0.4238 5.624792753959379 12.298002848506844 24.1568404691366 -6 2 0
408 350 2 -0.8476 0.5326642835388964 10.086331301550642 20.78961733152421 -4 0 0
513 385 2 -0.8476 5.457754984337665 11.1682503181214 18.08102437636742 -5 0 0
895 512 3 0.4238 3.1224540151743634 13.375197228547593 18.817068484848342 -4 -1 0
853 498 3 0.4238 5.692150572314179 9.715315078148553 21.847956844119423 -5 0 0
411 351 2 -0.8476 7.865967274966585 9.846564169542349 21.30407304274965 -6 0 0
818 486 3 0.4238 3.5390758425832654 11.630633359137173 22.69533688425705 -4 2 0
803 481 3 0.4238 0.7482155011402379 14.172599383464961 24.37570963938065 -4 0 0
385 342 3 0.4238 9.142945877544713 8.172151824333916 23.88787161281762 -5 2 0
831 491 2 -0.8476 1.5800358528518668 9.653803551742685 24.310545777420312 -4 2 0
832 491 3 0.4238 2.3106295353331223 10.292873920523153 24.55100770882241 -4 2 0
817 486 3 0.4238 3.028033945060261 12.760105413000542 23.758236233191454 -4 2 0
560 400 3 0.4238 7.6568696399377 10.400302014301635 24.358919472135764 -5 2 0
816 486 2 -0.8476 3.823172792011012 12.254492655501107 23.4234086905172 -4 2 0
438 360 2 -0.8476 7.0879512812135586 7.46066917773915 18.16185142053336 -4 0 0
439 360 3 0.4238 7.56666202168284 8.238437727680957 17.754528392530414 -4 0 0
957 533 2 -0.8476 1.2740165632540799 13.174929360056066 18.680360052173853 -2 3 0
745 462 3 0.4238 7.290987033829184 11.49450354643111 20.941834198880155 -4 0 0
852 498 2 -0.8476 5.255505553600559 9.507465438831584 22.72325101164697 -5 0 0
1003 548 3 0.4238 2.8009946566878443 11.765033010325107 20.43451877633846 -3 2 0
979 540 3 0.4238 4.344534083028373 7.970618203670387 22.573291163513243 -6 2 0
1004 548 3 0.4238 2.0390709943958774 10.528049021126062 21.180152325731285 -3 2 0
580 407 3 0.4238 5.501088358435578 8.105535455956261 17.628114970683416 -6 0 0
894 512 2 -0.8476 3.9258454542233823 13.101308431475847 19.345791065758565 -4 -1 0
959 533 3 0.4238 1.0099641892342621 12.215561253680944 18.58091319059335 -2 3 0
732 458 2 -0.8476 6.540136776545915 11.908314225255438 24.258272524617734 -6 2 0
746 462 3 0.4238 7.375622140281328 12.883929745951413 20.08804349512692 -4 0 0
847 496 3 0.4238 3.5152039343432677 8.473396588589193 18.704339685328573 -5 1 0
896 512 3 0.4238 4.433644977686824 12.402180127877806 18.84244213136828 -4 -1 0
558 400 2 -0.8476 8.43212294185361 9.961817056275757 23.90426220750634 -5 2 0
344 328 3 0.4238 9.16184244330886 13.294835631954825 23.848699879565004 -5 1 0
846 496 2 -0.8476 3.0830302794723217 8.237093806003784 19.574619421760396 -5 1 0
1002 548 2 -0.8476 2.837800933858711 11.129205762113628 21.205472090630327 -3 2 0
559 400 3 0.4238 9.138199307081806 10.644630103253855 23.71658567925513 -5 2 0
413 351 3 0.4238 7.944471188904356 10.028889337597178 22.284172197931408 -6 0 0
469 370 3 0.4238 8.654143101862985 12.678770382201341 18.256354985666682 -6 1 0
1019 555 4 1 5.006936991206957 13.705209817577453 21.59031035731007 -5 2 0
384 342 2 -0.8476 9.443144825331323 7.240384394322234 24.092052880645046 -5 2 0
978 540 2 -0.8476 3.6783000206780962 7.297434300644259 22.252424201171685 -6 2 0
342 328 2 -0.8476 8.463590252420078 13.97732508192692 24.06469061842326 -5 1 0
958 533 3 0.4238 0.6550081090820618 13.626092607302397 19.323229469581054 -2 3 0
744 462 2 -0.8476 6.865798177750584 12.386807713084268 20.790147191862218 -4 0 0
854 498 3 0.4238 5.146540600331361 10.350540101956765 23.249893118568 -5 0 0
409 350 3 0.4238 0.07111547573194091 9.213911658279903 20.950417900085103 -4 0 0
515 385 3 0.4238 6.433234067339562 11.14696755421572 18.30008490888893 -5 0 0
802 481 3 0.4238 1.109539290917188 12.653495769592961 24.85361712133344 -4 0 0
833 491 3 0.4238 1.9442352770415978 8.722656254822937 24.292553946926176 -4 2 0
734 458 3 0.4238 7.223171154544041 12.632346320673934 24.162134069061292 -6 2 0
412 351 3 0.4238 8.403750640447178 9.03614406749102 21.071676952758764 -6 0 0
848 496 3 0.4238 3.029926526307505 9.051561762830778 20.152392596247214 -5 1 0
579 407 2 -0.8476 4.703669730499174 8.686481822794345 17.464943888529437 -6 0 0
980 540 3 0.4238 3.2210363892539564 7.645022064263832 21.433832298378157 -6 2 0
468 370 2 -0.8476 8.094188927210617 12.03731858394794 17.731959387272024 -6 1 0
801 481 2 -0.8476 1.4475257270580368 13.457861314203207 24.36498488349278 -4 0 0
514 385 3 0.4238 5.155272416423146 10.25226776194597 17.81743334973501 -5 0 0
943 528 3 0.4238 0.1335960826943764 7.231458575841719 24.0680832342925 -3 1 0
516 386 2 -0.8476 0.04702086175395303 7.366693056048066 21.25843775176661 -5 1 0
440 360 3 0.4238 7.213272151824359 7.47451233540789 19.153871058318245 -4 0 0
940 527 3 0.4238 4.286955138902817 7.158060463276848 19.573007374069743 -5 0 0
14 14 1 0 1.853 8.2 27.35 0 0 0
21 21 1 0 0.618 8.912 27.35 0 0 0
22 22 1 0 1.853 12.477 27.35 0 0 0
23 23 1 0 1.853 11.051 27.35 0 0 0
24 24 1 0 0.618 10.338 27.35 0 0 0
29 29 1 0 0.618 13.191 27.35 0 0 0
54 54 1 0 4.322 8.2 27.35 0 0 0
61 61 1 0 3.088 8.912 27.35 0 0 0
62 62 1 0 4.322 12.477 27.35 0 0 0
63 63 1 0 4.322 11.051 27.35 0 0 0
64 64 1 0 3.088 10.338 27.35 0 0 0
69 69 1 0 3.088 13.191 27.35 0 0 0
94 94 1 0 6.793 8.2 27.35 0 0 0
101 101 1 0 5.558 8.912 27.35 0 0 0
102 102 1 0 6.793 12.477 27.35 0 0 0
103 103 1 0 6.793 11.051 27.35 0 0 0
104 104 1 0 5.558 10.338 27.35 0 0 0
109 109 1 0 5.558 13.191 27.35 0 0 0
134 134 1 0 9.262 8.2 27.35 0 0 0
141 141 1 0 8.027 8.912 27.35 0 0 0
142 142 1 0 9.262 12.477 27.35 0 0 0
143 143 1 0 9.262 11.051 27.35 0 0 0
144 144 1 0 8.027 10.338 27.35 0 0 0
149 149 1 0 8.027 13.191 27.35 0 0 0
26 26 1 0 1.853 16.755 7.5 0 0 0
27 27 1 0 1.853 15.33 7.5 0 0 0
28 28 1 0 0.618 14.616 7.5 0 0 0
33 33 1 0 0.618 17.468 7.5 0 0 0
34 34 1 0 1.853 21.034 7.5 0 0 0
35 35 1 0 1.853 19.607 7.5 0 0 0
36 36 1 0 0.618 18.894 7.5 0 0 0
66 66 1 0 4.322 16.755 7.5 0 0 0
67 67 1 0 4.322 15.33 7.5 0 0 0
68 68 1 0 3.088 14.616 7.5 0 0 0
73 73 1 0 3.088 17.468 7.5 0 0 0
74 74 1 0 4.322 21.034 7.5 0 0 0
75 75 1 0 4.322 19.607 7.5 0 0 0
76 76 1 0 3.088 18.894 7.5 0 0 0
106 106 1 0 6.793 16.755 7.5 0 0 0
107 107 1 0 6.793 15.33 7.5 0 0 0
108 108 1 0 5.558 14.616 7.5 0 0 0
113 113 1 0 5.558 17.468 7.5 0 0 0
114 114 1 0 6.793 21.034 7.5 0 0 0
115 115 1 0 6.793 19.607 7.5 0 0 0
116 116 1 0 5.558 18.894 7.5 0 0 0
146 146 1 0 9.262 16.755 7.5 0 0 0
147 147 1 0 9.262 15.33 7.5 0 0 0
148 148 1 0 8.027 14.616 7.5 0 0 0
153 153 1 0 8.027 17.468 7.5 0 0 0
154 154 1 0 9.262 21.034 7.5 0 0 0
155 155 1 0 9.262 19.607 7.5 0 0 0
156 156 1 0 8.027 18.894 7.5 0 0 0
476 372 3 0.4238 6.980881089238698 18.918765184150995 10.632983922182067 -5 0 0
805 482 3 0.4238 9.578451642576596 20.59201436070631 14.578057774685032 -5 -1 0
370 337 3 0.4238 3.7743918599350805 20.83627798730799 10.15533249365436 -3 2 0
326 322 3 0.4238 0.4234645511419061 16.9856356720337 14.607205504300701 -4 -1 0
556 399 3 0.4238 9.289872436855497 19.964502572896873 10.060338684208524 -5 1 0
460 367 3 0.4238 6.176923843799286 14.738644340587715 9.492384821179442 -4 0 0
459 367 2 -0.8476 6.011196199595712 14.670054024090879 10.476168168854086 -4 0 0
973 538 3 0.4238 3.594322837518363 17.05135269876625 11.172222968719403 -4 1 0
1000 547 3 0.4238 1.3578453786649671 14.37241885997579 13.780856050246797 -2 -1 0
473 371 3 0.4238 5.147998563234808 20.428422950754264 13.766356854590365 -4 0 0
325 322 3 0.4238 1.623568907343259 16.758938358831536 15.69117239669742 -4 -1 0
730 457 3 0.4238 7.572624006032242 16.795558677317803 16.67539421500275 -5 0 0
729 457 2 -0.8476 8.192384920708294 16.122630389000545 16.271582717016397 -5 0 0
783 475 2 -0.8476 2.339671179171952 17.669689545992497 12.476961843014573 -3 0 0
474 372 2 -0.8476 6.051939485296639 18.73585421665736 10.954870538959119 -5 0 0
974 538 3 0.4238 4.9457126570831464 17.653980743306654 10.481418055305808 -4 1 0
523 388 3 0.4238 8.561538435567488 15.807471926446507 11.733965062501861 -4 0 0
669 437 2 -0.8476 5.6888315112667085 18.2766163667068 16.76716386290019 -4 2 0
461 367 3 0.4238 5.332104539961186 15.351875267623967 10.748113491416724 -4 0 0
416 352 3 0.4238 4.3354884156195315 16.4211037683303 17.178430582448527 -4 0 0
639 427 2 -0.8476 2.518193928811122 19.8773536197268 15.269694466940217 -6 1 0
414 352 2 -0.8476 4.476391168502409 15.47067156884736 16.901256584912517 -4 0 0
369 337 2 -0.8476 4.638521452057596 21.14414831579518 10.553447854191559 -3 2 0
363 335 2 -0.8476 2.144265557905946 20.287151008877892 11.13515131266831 -3 -1 0
324 322 2 -0.8476 1.3298150128793937 17.292266536147284 14.897906693243941 -4 -1 0
641 427 3 0.4238 2.188997684316095 18.94596082866542 15.114332877265532 -6 1 0
668 436 3 0.4238 0.9973908105086405 16.88845325993409 10.949394607701969 -5 1 0
522 388 2 -0.8476 8.32990260347975 15.85069432428255 12.705807161267481 -4 0 0
475 372 3 0.4238 6.087511205197478 18.125476697307377 11.746182039495206 -5 0 0
555 399 2 -0.8476 8.881759112631965 19.06183255711663 10.19683314144723 -5 1 0
748 463 3 0.4238 6.998641293878348 16.882747405693767 13.054224157797682 -5 1 0
640 427 3 0.4238 3.4301343102340534 19.979200331306288 14.872213422550633 -6 1 0
785 475 3 0.4238 2.3157546673547516 18.6139677019042 12.148682905721797 -3 0 0
867 503 2 -0.8476 1.1444517383536097 14.916849322996878 16.61138006244191 -4 3 0
472 371 3 0.4238 5.240056160773744 18.79876261242404 13.814930081423116 -4 0 0
364 335 3 0.4238 1.2001419636763315 20.032954902889593 11.344948815579473 -3 -1 0
471 371 2 -0.8476 4.915159275434682 19.612908236112744 14.296188957281606 -4 0 0
371 337 3 0.4238 5.275143379039126 20.374627149673433 10.603941092457955 -3 2 0
972 538 2 -0.8476 4.37756029248747 16.838020837215797 10.588246421716894 -4 1 0
747 463 2 -0.8476 6.145018993705821 17.342776099057435 13.298564946537319 -5 1 0
904 515 3 0.4238 0.24330874906918254 14.380072384800853 10.378530181638126 -3 1 0
965 535 3 0.4238 0.9909685399176184 20.62419467665521 14.413633799291413 -5 2 0
996 546 2 -0.8476 9.629110297580379 17.24792459721106 14.382091548501135 -5 1 0
1001 547 3 0.4238 1.626760240293843 15.160880893149098 12.376349384067634 -2 -1 0
524 388 3 0.4238 8.200612371951136 14.924184338747088 13.059167596705977 -4 0 0
670 437 3 0.4238 5.37934062958642 18.508472158479364 15.84496053067611 -4 2 0
784 475 3 0.4238 1.9833964029794664 17.632261682795495 13.41059383808101 -3 0 0
666 436 2 -0.8476 0.26636099234648436 16.21930130184885 10.815861047119478 -5 1 0
749 463 3 0.4238 5.507349524494949 16.677671005266532 13.687168574023728 -5 1 0
731 457 3 0.4238 8.674918985136635 16.535320642500924 15.499023718415646 -5 0 0
415 352 3 0.4238 4.381568880554776 15.395402366029044 15.908611792336522 -4 0 0
718 453 3 0.4238 3.7730406129367218 14.723007392436024 13.504554877570426 -3 -2 0
869 503 3 0.4238 0.5714659140551753 14.515695289796085 15.896703449977037 -4 3 0
717 453 2 -0.8476 4.676345541842523 14.912332431832004 13.88951699629879 -3 -2 0
557 399 3 0.4238 9.600846292715238 18.36692184957969 10.193220640384355 -5 1 0
998 546 3 0.4238 9.051741333565623 16.783293667228115 13.71070249958395 -5 1 0
806 482 3 0.4238 8.953083103491945 20.80726363869942 13.085004402680449 -5 -1 0
804 482 2 -0.8476 9.238564374513183 21.268736973943426 13.924970350726497 -5 -1 0
365 335 3 0.4238 2.3714631668316537 21.141027930860776 11.603419865004039 -3 -1 0
999 547 2 -0.8476 2.031194493806694 14.559834761882257 13.065680061199323 -2 -1 0
868 503 3 0.4238 1.2374525341394707 14.268572940149149 17.36708373253459 -4 3 0
355 332 3 0.4238 3.332936358015728 20.68065181767999 19.677355656283098 -5 0 0
907 516 3 0.4238 7.778785261935194 21.10021213519549 20.22760930149741 -4 0 0
506 382 3 0.4238 3.1511086579662027 16.105039476845512 24.728432258384974 -6 1 0
500 380 3 0.4238 2.087770116430348 20.340007529524495 21.249274063102266 -4 1 0
343 328 3 0.4238 8.905769671620945 14.83281771866786 24.334152491456223 -5 1 0
845 495 3 0.4238 1.722417019135501 17.683584012698063 18.21115491045939 -6 -2 0
906 516 2 -0.8476 8.44627186858689 21.018678739412078 20.967753830914447 -4 0 0
390 344 2 -0.8476 6.299625188449905 15.392542361078707 22.730072129561197 -3 2 0
770 470 3 0.4238 9.197879995089485 18.41961093624355 18.351902859896533 -6 1 0
406 349 3 0.4238 7.644643189632726 17.680169277318125 19.75044021753656 -4 1 0
918 520 2 -0.8476 3.853139849413288 17.170155881117438 20.31307682095113 -3 1 0
862 501 3 0.4238 6.414560442718297 18.208055554905574 23.546482920750893 -4 2 0
819 487 2 -0.8476 9.570149181508576 16.61829718145844 23.623198862493094 -4 2 0
821 487 3 0.4238 9.0050138670403 17.422948060466137 23.80529578570947 -4 2 0
787 476 3 0.4238 5.931354962441671 20.391593705763817 19.86461501644714 -4 -1 0
908 516 3 0.4238 9.370396968804398 21.028802765743222 20.58579804765406 -4 0 0
356 332 3 0.4238 2.1173709077369542 19.908292233576326 18.907623453131947 -5 0 0
863 501 3 0.4238 7.410342626491516 19.306770756792698 24.230492766385147 -4 2 0
693 445 2 -0.8476 3.0477302338083723 15.05746630703375 21.670943556603792 -3 1 0
700 447 3 0.4238 8.430121573350037 18.029966250475482 21.802969857566612 -5 1 0
354 332 2 -0.8476 2.9442152747796304 20.456875411414035 18.78358854943028 -5 0 0
526 389 3 0.4238 8.40483693907556 21.362657870722806 22.631140660391534 -4 1 0
576 406 2 -0.8476 4.982776482186181 18.313544839577858 22.547168501072143 -4 1 0
920 520 3 0.4238 3.3052926024783615 17.283922715544403 19.484270155075375 -3 1 0
407 349 3 0.4238 6.825053231924713 17.476219914700504 18.35283363365199 -4 1 0
394 345 3 0.4238 5.392937234233374 15.057009844255978 18.613621751539725 -4 0 0
577 406 3 0.4238 4.53846393299069 17.811133177909173 21.80543478857576 -4 1 0